hydrogel_1180c166f2e323e3e0efb9efd5931fbe
55650
    1PVA     C1    1   5.034   0.486   3.006  0.9746 -0.1667  0.2467
    1PVA     H1    2   4.938   0.507   2.959  0.0476  0.1363  2.1739
    1PVA     H2    3   5.113   0.517   2.936 -0.6053 -0.6151 -1.8333
    1PVA     C2    4   5.041   0.327   3.012 -0.1928 -0.3327 -0.3621
    1PVA     H3    5   5.128   0.292   3.068  0.9642  0.3835 -1.6559
    1PVA     O1    6   4.926   0.278   3.083  0.8914  0.5027  0.3031
    1PVA     H4    7   4.857   0.266   3.016 -0.6693  0.7228  1.7960
    1PVA     C3    8   5.042   0.271   2.862  0.2994  0.3508 -0.6272
    1PVA     H5    9   5.069   0.359   2.802 -1.0348  1.4198  0.2595
    1PVA     H6   10   4.938   0.266   2.827  0.4684  3.2744 -1.8190
    1PVA     C4   11   5.125   0.148   2.818  0.2888  0.0262 -0.2224
    1PVA     H7   12   5.233   0.171   2.818  0.4925 -0.8153 -1.5529
    1PVA     H8   13   5.118   0.081   2.905  1.9884  0.9553  0.6913
    1PVA     C5   14   5.093   0.066   2.682 -0.1853  1.6558  1.4671
    1PVA     H9   15   5.012   7.679   2.701  1.2747 -0.0902  1.3031
    1PVA     O2   16   5.053   0.164   2.587 -0.1643  0.8616 -0.3289
    1PVA    H10   17   5.000   0.235   2.628  1.8253  2.5586 -0.5643
    1PVA     C6   18   5.204   7.658   2.615 -0.0627  0.2168  0.2895
    1PVA    H11   19   5.280   0.046   2.584  2.7032 -2.9788 -1.0697
    1PVA    H12   20   5.262   7.604   2.690  2.9380  1.5653 -0.8936
    1PVA     C7   21   5.164   7.563   2.498  0.8204  0.6911  0.7555
    1PVA    H13   22   5.136   7.636   2.421  0.7654 -1.4360 -1.3719
    1PVA    H14   23   5.075   7.513   2.539  0.2032  0.8810 -0.3287
    1PVA     C8   24   5.262   7.453   2.445 -0.2321  0.1334 -0.4802
    1PVA    H15   25   5.255   7.375   2.522 -0.7450  1.5727  0.9755
    1PVA     O3   26   5.390   7.512   2.455 -0.5156  0.2806 -0.6168
    1PVA    H16   27   5.396   7.554   2.367 -3.0568  0.7472 -0.6446
    1PVA     C9   28   5.220   7.399   2.309 -0.2735  0.8217 -0.2056
    1PVA    H17   29   5.126   7.343   2.308 -0.0182  0.1035  3.0916
    1PVA    H18   30   5.201   7.489   2.250  2.4416  2.7014  1.5642
    1PVA    C10   31   5.319   7.315   2.236  0.4701  0.2250  0.4625
    1PVA    H19   32   5.405   7.383   2.223  3.2245 -2.3162  3.4790
    1PVA    H20   33   5.353   7.237   2.306 -1.4251 -0.7858  0.3204
    1PVA    C11   34   5.272   7.258   2.112 -0.4115 -0.0071  0.7332
    1PVA    H21   35   5.280   7.349   2.050 -0.2441 -2.1807 -2.6986
    1PVA     O4   36   5.141   7.207   2.119 -0.3201  0.0403  0.1280
    1PVA    H22   37   5.142   7.113   2.143 -1.5699  0.6000  2.6897
    1PVA    C12   38   5.377   7.160   2.030  1.2310  1.0865  0.2584
    1PVA    H23   39   5.447   7.233   1.988 -3.1419  7.5675  2.6283
    1PVA    H24   40   5.399   7.077   2.098 -3.6285 -3.2079 -2.6190
    1PVA    C13   41   5.309   7.087   1.902  0.9211 -0.2010  1.6553
    1PVA    H25   42   5.254   6.997   1.929 -0.3196  0.9617  3.1518
    1PVA    H26   43   5.233   7.159   1.869  0.9614 -0.7266  0.3480
    1PVA    C14   44   5.421   7.050   1.803  1.0674 -0.0553  0.8054
    1PVA    H27   45   5.502   7.123   1.795  0.5417  0.3169 -3.3562
    1PVA     O5   46   5.476   6.925   1.833 -0.4729 -0.1976  0.9156
    1PVA    H28   47   5.509   6.922   1.925 -1.8990 -4.0345  1.4681
    1PVA    C15   48   5.357   7.024   1.648 -1.4524  0.6858 -0.3831
    1PVA    H29   49   5.303   7.110   1.606 -0.5752  2.8542  2.6014
    1PVA    H30   50   5.288   6.944   1.677 -0.2277  0.9312  3.9607
    1PVA    C16   51   5.459   6.984   1.531 -0.2414  0.4834  0.0188
    1PVA    H31   52   5.546   7.050   1.532 -0.2287  0.5558 -1.9800
    1PVA    H32   53   5.487   6.880   1.552 -2.0028  0.1522  0.9978
    1PVA    C17   54   5.433   6.958   1.370  0.8981  0.2713 -0.0855
    1PVA    H33   55   5.389   7.043   1.316  0.4307  1.4076  1.9854
    1PVA     O6   56   5.330   6.856   1.363 -0.0290 -0.5455 -0.0948
    1PVA    H34   57   5.338   6.807   1.447 -2.5970  0.2753  0.7322
    1PVA    C18   58   5.561   6.913   1.275  0.1278 -0.6855 -0.5320
    1PVA    H35   59   5.537   6.960   1.179  3.6458  3.6584  0.3916
    1PVA    H36   60   5.640   6.985   1.296 -3.3058  2.8514  1.5671
    1PVA    C19   61   5.597   6.759   1.247 -0.2698  0.5090 -0.4718
    1PVA    H37   62   5.514   6.717   1.190 -1.7559  1.6673  0.7425
    1PVA    H38   63   5.609   6.723   1.350 -0.2747 -1.5788 -1.1653
    1PVA    C20   64   5.730   6.707   1.179 -0.1332  0.2347 -0.2874
    1PVA    H39   65   5.804   6.788   1.171 -1.6499  1.7418  0.3195
    1PVA     O7   66   5.707   6.674   1.042 -0.5762 -0.5622 -0.1923
    1PVA    H40   67   5.740   6.585   1.022  1.7463  0.7456 -2.8583
    1PVA    C21   68   5.788   6.579   1.258  0.3249 -1.5001 -0.4356
    1PVA    H41   69   5.745   6.580   1.359 -1.0960  1.8507 -0.9482
    1PVA    H42   70   5.746   6.487   1.215  1.8980 -2.6324  0.3654
    1PVA    C22   71   5.935   6.539   1.276  0.4754 -0.0867 -0.4478
    1PVA    H43   72   5.984   6.560   1.180  1.2585  0.2398  0.0180
    1PVA    H44   73   5.982   6.620   1.333 -0.5863  2.6047 -3.1559
    1PVA    C23   74   5.959   6.396   1.343  0.5700  0.0901 -0.4810
    1PVA    H45   75   5.929   6.311   1.281  0.4822 -0.0467 -0.2545
    1PVA     O8   76   5.902   6.380   1.473  0.3671  0.4993  0.7894
    1PVA    H46   77   5.960   6.437   1.526 -0.2048  0.9910  0.8880
    1PVA    C24   78   6.116   6.375   1.342  0.3358  0.3856 -0.3798
    1PVA    H47   79   6.154   6.276   1.314  2.2079  1.1723 -0.7541
    1PVA    H48   80   6.161   6.437   1.264  0.9259  1.8892  1.1108
    1PVA    C25   81   6.198   6.420   1.470 -0.8146 -0.3340 -1.2492
    1PVA    H49   82   6.153   6.511   1.513 -0.9634 -0.3891 -1.2903
    1PVA    H50   83   6.196   6.357   1.560  0.1758  1.3472  0.0304
    1PVA    C26   84   6.355   6.418   1.481 -0.4131  0.6887  0.0047
    1PVA    H51   85   6.381   6.314   1.458 -1.0408  0.6514 -0.5775
    1PVA     O9   86   6.426   6.474   1.367 -0.1811  0.6262 -0.8132
    1PVA    H52   87   6.392   6.442   1.282  1.4336  2.3108 -2.1815
    1PVA    C27   88   6.426   6.456   1.621  0.2713  0.7883  0.8977
    1PVA    H53   89   6.492   6.372   1.648 -2.3649 -1.8445 -0.2048
    1PVA    H54   90   6.350   6.461   1.700 -1.7413  3.0543 -1.0453
    1PVA    C28   91   6.517   6.587   1.636  0.9380 -0.3977 -0.6794
    1PVA    H55   92   6.605   6.590   1.570  1.3745 -0.2021 -0.0921
    1PVA    H56   93   6.447   6.657   1.590  0.2130 -1.1463 -0.7404
    1PVA    C29   94   6.559   6.629   1.789 -0.3618 -0.7199  1.2040
    1PVA    H57   95   6.551   6.536   1.847  1.1977 -1.9244 -0.3758
    1PVA    O10   96   6.693   6.669   1.795  0.5432  0.2825 -1.3219
    1PVA    H58   97   6.739   6.649   1.878 -0.2657 -0.9237 -1.1297
    1PVA    C30   98   6.466   6.733   1.859 -1.0859 -0.1317 -0.7147
    1PVA    H59   99   6.425   6.807   1.789  0.0204  3.9800  2.5271
    1PVA    H60  100   6.381   6.675   1.898 -0.0836 -0.7857  0.5887
    1PVA    C31  101   6.527   6.827   1.986 -0.2725  0.0672  0.6344
    1PVA    H61  102   6.607   6.891   1.947 -1.9521  3.1687  1.9743
    1PVA    H62  103   6.596   6.774   2.053  1.5576 -1.0925 -1.9777
    1PVA    C32  104   6.440   6.916   2.079  0.5360  0.8683 -0.0792
    1PVA    H63  105   6.439   7.007   2.018 -0.5653  1.4571  0.7840
    1PVA    O11  106   6.306   6.858   2.097 -0.2169 -0.2870  0.3950
    1PVA    H64  107   6.325   6.763   2.099  1.5810 -0.0210 -1.0026
    1PVA    C33  108   6.495   6.951   2.219 -0.7398 -0.1143  0.6925
    1PVA    H65  109   6.579   7.019   2.203 -0.5652 -0.1422  1.4609
    1PVA    H66  110   6.525   6.868   2.285  0.1916 -0.7224 -0.4700
    1PVA    C34  111   6.408   7.040   2.310 -0.1539  0.5874 -0.6045
    1PVA    H67  112   6.377   7.130   2.255  4.4377  1.5264 -2.0184
    1PVA    H68  113   6.326   6.972   2.338  1.2158 -1.8458 -2.1251
    1PVA    C35  114   6.475   7.107   2.437 -0.4061  0.0688  0.3507
    1PVA    H69  115   6.483   7.018   2.501 -2.3560 -1.5745 -1.5428
    1PVA    O12  116   6.614   7.142   2.409  0.0571 -0.2733 -0.8185
    1PVA    H70  117   6.610   7.206   2.337  3.3012 -1.8660 -2.6786
    1PVA    C36  118   6.390   7.226   2.507  0.3716  0.4869  0.1980
    1PVA    H71  119   6.421   7.314   2.449  0.1180 -1.3271 -2.9060
    1PVA    H72  120   6.282   7.216   2.498  0.4551 -1.8729  1.1037
    1PVA    C37  121   6.406   7.260   2.660 -0.3811 -0.2177 -0.0119
    1PVA    H73  122   6.514   7.260   2.677 -0.3479  1.0637 -0.1595
    1PVA    H74  123   6.358   7.186   2.725  0.3571  1.2015  2.2479
    1PVA    C38  124   6.362   7.399   2.702  0.7246 -0.6960 -0.9541
    1PVA    H75  125   6.254   7.404   2.687  0.4517  2.2869  1.1557
    1PVA    O13  126   6.426   7.506   2.635 -0.5996  0.1555  0.4606
    1PVA    H76  127   6.522   7.488   2.643 -0.1258  1.9852 -0.6414
    1PVA    C39  128   6.397   7.394   2.859  0.4874 -0.8456 -1.1777
    1PVA    H77  129   6.324   7.343   2.923 -0.3118 -3.3300 -3.8518
    1PVA    H78  130   6.491   7.341   2.880 -0.1088 -1.2845  0.5799
    1PVA    C40  131   6.432   7.529   2.946  0.6278  0.2340  0.2321
    1PVA    H79  132   6.509   7.573   2.882  0.8252  0.1938  0.4395
    1PVA    H80  133   6.341   7.587   2.966 -1.6511 -2.7540 -0.7903
    1PVA    C41  134   6.509   7.516   3.081 -0.3685  1.2754  0.7092
    1PVA    H81  135   6.598   7.459   3.054 -4.1545 -4.5568 -1.4098
    1PVA    O14  136   6.419   7.450   3.168  0.0651 -0.2368 -0.2078
    1PVA    H82  137   6.471   7.424   3.247  1.3505 -1.3784 -1.3532
    1PVA    C42  138   6.576   7.656   3.139  0.1174 -0.7221 -0.0286
    1PVA    H83  139   6.633   0.027   3.064  1.0384 -1.2935  0.2338
    1PVA    H84  140   6.488   0.036   3.142  1.0077  0.6319 -1.6576
    1PVA    C43  141   6.649   7.651   3.280  0.9975 -0.3500  0.0600
    1PVA    H85  142   6.747   7.603   3.281  1.1199 -0.3499 -2.8548
    1PVA    H86  143   6.590   7.576   3.335 -1.9197  1.3697 -0.4890
    1PVA    C44  144   6.669   0.105   3.360  0.0825  0.7986 -1.0027
    1PVA    H87  145   6.775   0.122   3.337  0.1316 -0.4052 -1.7446
    1PVA    O15  146   6.579   0.203   3.324 -0.2732 -0.8478 -0.1949
    1PVA    H88  147   6.617   0.288   3.294 -0.8225 -0.4630  0.1780
    1PVA    C45  148   6.674   0.103   3.519 -0.1171 -0.5503  0.0619
    1PVA    H89  149   6.766   0.050   3.545  1.2175  1.0721 -1.1774
    1PVA    H90  150   6.585   0.055   3.562  0.5606 -2.2383 -0.3528
    1PVA    C46  151   6.692   0.253   3.583  0.8860  0.5093  0.0450
    1PVA    H91  152   6.605   0.314   3.554  1.4985  0.3378 -2.4209
    1PVA    H92  153   6.789   0.298   3.558 -0.4492  3.7152  0.1392
    1PVA    C47  154   6.702   0.268   3.740 -0.2420  0.4862  0.2113
    1PVA    H93  155   6.799   0.236   3.781 -0.3386  2.8191  2.5300
    1PVA    O16  156   6.611   0.172   3.805  0.1369  0.2963  0.4187
    1PVA    H94  157   6.535   0.183   3.745 -0.4314 -2.7942  0.3998
    1PVA    C48  158   6.691   0.411   3.820 -0.2053  0.0072 -0.2801
    1PVA    H95  159   6.716   0.503   3.765  0.2716  0.4168  0.6042
    1PVA    H96  160   6.581   0.416   3.828 -0.0641  0.1393  2.8045
    1PVA    C49  161   6.733   0.439   3.968 -0.3539 -0.3736 -0.2330
    1PVA    H97  162   6.840   0.463   3.966 -1.1193  3.9465 -3.7244
    1PVA    H98  163   6.728   0.344   4.023 -0.2639 -0.0114  0.4104
    1PVA    C50  164   6.647   0.559   4.040 -0.3072  0.0334 -0.2774
    1PVA    H99  165   6.542   0.529   4.044 -1.9048  4.7845  1.0448
    1PVA    O17  166   6.649   0.692   3.981 -0.0437 -0.0392 -0.2533
    1PVA   H100  167   6.654   0.681   3.884 -2.7615  0.4100 -0.5138
    1PVA    C51  168   6.665   0.567   4.194 -0.5789 -1.3985  0.0195
    1PVA   H101  169   6.753   0.504   4.208  0.1159 -0.2451  1.1171
    1PVA   H102  170   6.578   0.532   4.251  0.5567 -1.4106  1.8130
    2PVA     C1  171   4.966   0.868   3.382  0.3245  0.7037 -0.2066
    2PVA     H1  172   4.979   0.840   3.487  0.3744 -1.8633 -0.8342
    2PVA     H2  173   4.863   0.841   3.354  1.0978  0.6819 -3.4098
    2PVA     C2  174   4.941   1.028   3.376 -0.4376  0.2339 -0.3010
    2PVA     H3  175   4.916   1.048   3.271  0.5101 -2.4045 -1.1274
    2PVA     O1  176   5.058   1.099   3.418  0.3069 -0.6001  0.0458
    2PVA     H4  177   5.085   1.048   3.496  1.4291 -0.5877 -0.3242
    2PVA     C3  178   4.821   1.089   3.461  1.3896 -1.0811 -0.5218
    2PVA     H5  179   4.796   1.032   3.550  0.1818 -1.8066 -1.3037
    2PVA     H6  180   4.735   1.067   3.397  0.4305  3.3793 -1.1466
    2PVA     C4  181   4.812   1.244   3.501 -0.0961  0.8582  0.0992
    2PVA     H7  182   4.909   1.270   3.547  2.6317 -2.0962 -3.4168
    2PVA     H8  183   4.823   1.295   3.405 -1.3012 -0.4754 -0.7694
    2PVA     C5  184   4.683   1.311   3.575 -0.2007  0.8953 -0.1649
    2PVA     H9  185   4.613   1.332   3.493  0.1263  2.1750 -0.1348
    2PVA     O2  186   4.624   1.207   3.654 -0.3980 -0.5190  0.2601
    2PVA    H10  187   4.695   1.178   3.714 -0.1940 -1.0895 -0.2453
    2PVA     C6  188   4.700   1.447   3.671  0.0454 -0.3678  1.1816
    2PVA    H11  189   4.766   1.417   3.752  0.5408 -0.4639  0.7488
    2PVA    H12  190   4.758   1.528   3.624 -2.3151  1.8135  1.8135
    2PVA     C7  191   4.551   1.503   3.740  0.6083  0.5821  0.8422
    2PVA    H13  192   4.503   1.417   3.788  1.8417 -1.6331 -1.6368
    2PVA    H14  193   4.472   1.521   3.666  2.9486 -0.2537 -2.0051
    2PVA     C8  194   4.550   1.625   3.840 -0.8589 -0.6040  1.6959
    2PVA    H15  195   4.651   1.633   3.882  0.9824  1.3316 -2.4925
    2PVA     O3  196   4.542   1.737   3.745 -0.2534  0.1958 -0.4274
    2PVA    H16  197   4.540   1.707   3.653 -0.0847  1.5178 -0.8807
    2PVA     C9  198   4.432   1.670   3.935  0.8608  0.5471  0.0531
    2PVA    H17  199   4.430   1.595   4.015 -0.7798 -0.1674 -0.6000
    2PVA    H18  200   4.335   1.647   3.888 -0.6521  3.6774  1.3991
    2PVA    C10  201   4.420   1.820   3.986  0.6678  0.3967 -0.6734
    2PVA    H19  202   4.508   1.826   4.052  0.2082 -3.2549  0.4922
    2PVA    H20  203   4.429   1.891   3.903  0.8228  3.4641  1.7691
    2PVA    C11  204   4.288   1.874   4.080 -0.1710 -0.2578 -1.0864
    2PVA    H21  205   4.212   1.866   4.002  1.1895  0.1097 -2.5175
    2PVA     O4  206   4.268   1.776   4.178 -0.2650 -0.0830  1.1440
    2PVA    H22  207   4.357   1.736   4.178  1.9091  4.1897  0.7826
    2PVA    C12  208   4.276   2.031   4.129 -0.5298  0.2626  0.6757
    2PVA    H23  209   4.248   2.099   4.047 -3.9785  2.6352  3.5463
    2PVA    H24  210   4.379   2.062   4.150 -0.0012  0.5948 -1.9478
    2PVA    C13  211   4.153   2.059   4.222 -0.2987  0.2603  0.0192
    2PVA    H25  212   4.065   2.006   4.182 -0.0355 -1.2778  1.3379
    2PVA    H26  213   4.142   2.000   4.315 -1.8957  2.3592  1.2590
    2PVA    C14  214   4.115   2.208   4.284  1.0022 -0.3298 -1.6561
    2PVA    H27  215   4.077   2.257   4.194 -2.5829 -0.5116 -0.4029
    2PVA     O5  216   4.242   2.264   4.335  0.6230  0.3705  0.2352
    2PVA    H28  217   4.277   2.194   4.394 -1.4671  0.3188  1.5294
    2PVA    C15  218   3.994   2.234   4.384 -0.7710  0.2065 -0.3528
    2PVA    H29  219   4.020   2.171   4.470 -0.2164 -1.3951 -1.6252
    2PVA    H30  220   3.898   2.195   4.347 -3.5592  1.3553  4.7485
    2PVA    C16  221   3.948   2.380   4.438 -0.4393 -0.1333  0.3221
    2PVA    H31  222   4.030   2.423   4.497  2.5831 -4.1361 -0.5604
    2PVA    H32  223   3.944   2.438   4.345  0.4679 -1.9140 -0.8743
    2PVA    C17  224   3.807   2.405   4.519 -0.0717  0.8007 -0.2599
    2PVA    H33  225   3.838   2.364   4.617 -1.9005  1.6434  0.7269
    2PVA     O6  226   3.708   2.314   4.473  0.3190 -0.4668 -0.4519
    2PVA    H34  227   3.669   2.351   4.392  2.4050  0.2975 -1.1580
    2PVA    C18  228   3.751   2.561   4.549 -0.1767 -0.2978 -0.9206
    2PVA    H35  229   3.739   2.584   4.655 -0.4332 -1.3011 -0.7288
    2PVA    H36  230   3.826   2.634   4.517  1.7640 -2.3199 -1.1457
    2PVA    C19  231   3.604   2.601   4.484 -0.2789 -0.0642 -0.9329
    2PVA    H37  232   3.560   2.504   4.456  0.5220 -0.7878  0.1924
    2PVA    H38  233   3.617   2.657   4.391 -0.7030  1.7371  0.0361
    2PVA    C20  234   3.499   2.689   4.563  0.4064 -0.4046 -1.6410
    2PVA    H39  235   3.546   2.754   4.638 -0.1006 -0.0139 -1.6581
    2PVA     O7  236   3.413   2.595   4.641  0.8469 -0.7265  0.8332
    2PVA    H40  237   3.458   2.512   4.664  1.7672 -0.3349  0.5171
    2PVA    C21  238   3.413   2.799   4.484  0.0421  0.1452  0.7442
    2PVA    H41  239   3.403   2.752   4.386 -0.7846  3.2858 -0.7883
    2PVA    H42  240   3.470   2.891   4.468 -1.9878  1.0744 -1.6092
    2PVA    C22  241   3.281   2.851   4.557  0.7695 -0.7254 -0.5538
    2PVA    H43  242   3.211   2.779   4.601 -1.3666  1.7225  0.3292
    2PVA    H44  243   3.335   2.860   4.652 -3.0321 -3.3502  2.1654
    2PVA    C23  244   3.188   2.976   4.505 -0.5758 -0.4019 -0.6000
    2PVA    H45  245   3.248   3.044   4.444  0.8673 -0.6749  0.4300
    2PVA     O8  246   3.097   2.909   4.411 -0.4454  0.3364  0.4971
    2PVA    H46  247   3.160   2.896   4.338  4.4987  3.2503  3.5942
    2PVA    C24  248   3.095   3.080   4.589  0.1308  0.0575  0.4308
    2PVA    H47  249   3.010   3.037   4.642 -0.9459  0.8960 -0.5531
    2PVA    H48  250   3.032   3.119   4.508  0.5043  2.8361  1.3635
    2PVA    C25  251   3.137   3.217   4.680 -0.8670 -0.2414 -0.1534
    2PVA    H49  252   3.231   3.258   4.642 -2.2633 -0.5867 -4.4732
    2PVA    H50  253   3.071   3.304   4.666 -1.5150 -0.8598 -1.0753
    2PVA    C26  254   3.121   3.240   4.848  0.3900  0.6063 -0.3280
    2PVA    H51  255   3.152   3.141   4.884 -1.7933 -0.3659 -0.9941
    2PVA     O9  256   2.980   3.266   4.871  0.8462  0.6527  0.1016
    2PVA    H52  257   2.945   3.222   4.951 -1.9008  3.1039  0.4659
    2PVA    C27  258   3.209   3.347   4.921  0.4122 -0.5314 -0.3671
    2PVA    H53  259   3.142   3.414   4.975  0.3113 -2.6812  2.4505
    2PVA    H54  260   3.263   3.406   4.846 -1.4848  3.6297  1.2868
    2PVA    C28  261   3.319   3.312   5.030  0.2666 -0.4871  0.5129
    2PVA    H55  262   3.405   3.358   4.980 -0.9617 -1.2444 -2.5846
    2PVA    H56  263   3.332   3.203   5.025 -3.8777 -1.2466  2.1986
    2PVA    C29  264   3.313   3.361   5.183  0.4480  0.1652  0.9690
    2PVA    H57  265   3.204   3.374   5.181  0.4207  0.2309 -1.8405
    2PVA    O10  266   3.364   3.496   5.177 -0.3198  1.1088 -0.1564
    2PVA    H58  267   3.436   3.494   5.112  3.0457  2.7007  3.1581
    2PVA    C30  268   3.373   3.284   5.308  0.2684 -1.1264 -0.4005
    2PVA    H59  269   3.350   3.177   5.315  1.4149 -1.2794  3.0593
    2PVA    H60  270   3.480   3.263   5.298  0.8923  0.7658  1.5689
    2PVA    C31  271   3.374   3.357   5.460 -0.8515  0.6368  0.0853
    2PVA    H61  272   3.293   3.431   5.462 -0.7167  0.8643 -1.6404
    2PVA    H62  273   3.470   3.410   5.466 -2.1940  3.3530 -0.7115
    2PVA    C32  274   3.361   3.278   5.594  0.3786  0.3520 -0.6933
    2PVA    H63  275   3.308   3.183   5.580  1.6199 -0.6088  0.7727
    2PVA    O11  276   3.485   3.243   5.663  0.2224  0.4009  0.4971
    2PVA    H64  277   3.516   3.167   5.610 -2.1858 -2.2267  2.5872
    2PVA    C33  278   3.257   3.360   5.693 -1.0519  0.3663 -0.9044
    2PVA    H65  279   3.291   3.461   5.719 -2.0966  0.8782 -1.4583
    2PVA    H66  280   3.164   3.374   5.636 -1.3424  1.3228 -0.2295
    2PVA    C34  281   3.219   3.315   5.841  0.6412  0.2189 -0.2849
    2PVA    H67  282   3.227   3.206   5.845 -1.6980  0.0303  0.5938
    2PVA    H68  283   3.300   3.338   5.911  0.0232 -0.6805  0.7697
    2PVA    C35  284   3.075   3.346   5.906 -0.0951 -0.8256  0.2110
    2PVA    H69  285   3.002   3.290   5.846 -0.6760 -0.9713  1.0378
    2PVA    O12  286   3.037   3.476   5.869  1.1797 -0.1519 -0.2889
    2PVA    H70  287   3.105   3.535   5.905  1.5210  1.3706 -3.1648
    2PVA    C36  288   3.047   3.325   6.057 -0.0106  0.4786  0.0734
    2PVA    H71  289   3.112   3.408   6.088  2.3474 -0.8466 -1.0377
    2PVA    H72  290   3.104   3.247   6.110 -0.3617  1.4193  1.9440
    2PVA    C37  291   2.901   3.337   6.109 -0.7758  0.0137 -0.3266
    2PVA    H73  292   2.838   3.397   6.041  1.9727  2.4143 -0.9547
    2PVA    H74  293   2.865   3.235   6.088  2.1136 -0.8554 -1.5058
    2PVA    C38  294   2.866   3.372   6.262 -1.1762  0.0122  1.1245
    2PVA    H75  295   2.919   3.467   6.280 -0.3799 -0.5395  1.7881
    2PVA    O13  296   2.934   3.264   6.333 -0.0023  0.8588 -1.1701
    2PVA    H76  297   2.874   3.188   6.327  0.0689  0.5959  0.7233
    2PVA    C39  298   2.714   3.362   6.301 -0.1324  0.3458  0.7353
    2PVA    H77  299   2.682   3.259   6.282  0.0351  0.6672 -1.5685
    2PVA    H78  300   2.663   3.418   6.221  0.3564 -1.5877 -1.0123
    2PVA    C40  301   2.680   3.400   6.447  1.1593 -0.3170  0.2214
    2PVA    H79  302   2.693   3.320   6.520 -0.7595 -0.7496  0.1368
    2PVA    H80  303   2.757   3.470   6.481  2.6504 -1.6079 -0.3936
    2PVA    C41  304   2.522   3.451   6.480 -0.7996 -1.9465  0.3114
    2PVA    H81  305   2.474   3.471   6.383 -2.8367 -2.2573  1.2155
    2PVA    O14  306   2.449   3.362   6.541 -0.0171  0.9036 -0.5090
    2PVA    H82  307   2.355   3.387   6.540 -1.1214 -2.5442 -2.7353
    2PVA    C42  308   2.497   3.590   6.572 -0.2784 -0.8232 -0.7246
    2PVA    H83  309   2.429   3.552   6.650  1.3644 -0.2806  1.0433
    2PVA    H84  310   2.598   3.616   6.605  0.3242 -2.4507 -1.1920
    2PVA    C43  311   2.425   3.733   6.519 -0.0395  0.0384  1.1391
    2PVA    H85  312   2.318   3.713   6.503 -1.1158  3.7710  2.5546
    2PVA    H86  313   2.463   3.763   6.420 -4.3068 -1.0298 -1.0558
    2PVA    C44  314   2.415   3.887   6.584 -0.1367 -1.2094 -1.0253
    2PVA    H87  315   2.370   3.953   6.509 -0.1275  2.7808  2.1539
    2PVA    O15  316   2.302   3.898   6.671 -0.4071  0.0863 -0.2738
    2PVA    H88  317   2.315   3.883   6.766  0.5600 -1.6315 -0.6370
    2PVA    C45  318   2.523   4.014   6.616 -1.3816  0.5357 -0.2175
    2PVA    H89  319   2.556   4.064   6.525  0.6749  1.9347  1.2292
    2PVA    H90  320   2.618   3.981   6.660 -2.8290 -0.8314  2.1443
    2PVA    C46  321   2.480   4.116   6.731  0.2941 -1.4033  0.6139
    2PVA    H91  322   2.398   4.183   6.704 -0.0736 -2.5489 -1.2331
    2PVA    H92  323   2.423   4.070   6.813 -0.5587 -2.8533 -0.7242
    2PVA    C47  324   2.601   4.204   6.800 -0.6038  0.6233 -0.2432
    2PVA    H93  325   2.550   4.296   6.771 -4.1737 -1.5960 -1.6972
    2PVA    O16  326   2.728   4.177   6.744 -0.1802 -0.1030  0.3098
    2PVA    H94  327   2.787   4.254   6.745  1.7487 -1.4622  1.6180
    2PVA    C48  328   2.608   4.214   6.964  0.8846  0.3081  0.4059
    2PVA    H95  329   2.518   4.201   7.025  0.8908 -0.7896  0.2070
    2PVA    H96  330   2.631   4.320   6.982  1.4836  0.7693 -2.6110
    2PVA    C49  331   2.721   4.123   7.041  0.5087  0.3036 -0.4413
    2PVA    H97  332   2.738   4.016   7.023 -2.6681 -0.7316  1.8464
    2PVA    H98  333   2.819   4.150   7.001 -0.6200 -1.3911 -4.9630
    2PVA    C50  334   2.749   4.131   7.201  1.0009  0.7668  0.0669
    2PVA    H99  335   2.738   4.239   7.216 -0.2001  0.7760 -0.7844
    2PVA    O17  336   2.876   4.061   7.219  0.6824 -0.0532 -0.6380
    2PVA   H100  337   2.930   4.105   7.151 -0.9982 -1.3261 -2.9329
    2PVA    C51  338   2.647   4.073   7.312  0.5412 -0.5131  1.1020
    2PVA   H101  339   2.565   4.145   7.324  1.0332  0.4260 -0.8687
    2PVA   H102  340   2.595   3.985   7.273  0.9367 -0.1749 -0.2211
    3PVA     C1  341   5.056   7.450   3.330  0.0776 -0.2263 -0.6440
    3PVA     H1  342   5.140   7.439   3.261  2.5193 -0.9015  2.2365
    3PVA     H2  343   4.989   7.499   3.258 -0.7417 -0.3692  0.0091
    3PVA     C2  344   5.008   7.311   3.378  0.3473 -0.2045 -0.5255
    3PVA     H3  345   5.032   7.292   3.483  0.3225  2.8538  0.1194
    3PVA     O1  346   4.862   7.302   3.371 -0.2458 -0.5954 -0.0064
    3PVA     H4  347   4.823   7.339   3.452 -3.0888 -2.5660 -0.3323
    3PVA     C3  348   5.065   7.206   3.280  0.2040  0.4864 -0.4641
    3PVA     H5  349   5.174   7.213   3.278  0.3174  3.4884  3.8124
    3PVA     H6  350   5.028   7.232   3.180 -4.5263  1.0444  1.1629
    3PVA     C4  351   5.015   7.064   3.316 -0.2209  0.0607 -0.6127
    3PVA     H7  352   5.107   7.011   3.340 -0.0611  1.8699  3.6905
    3PVA     H8  353   4.961   7.069   3.411  0.5740  0.3601 -0.1741
    3PVA     C5  354   4.928   6.996   3.210 -0.7469  0.6730  0.5049
    3PVA     H9  355   4.867   7.073   3.162  0.1250  2.0315  1.5277
    3PVA     O2  356   5.021   6.949   3.097 -0.9844 -0.8636 -0.0482
    3PVA    H10  357   5.062   7.017   3.040  0.8363 -1.8244  0.0297
    3PVA     C6  358   4.844   6.874   3.269  0.2538  0.3195  0.3963
    3PVA    H11  359   4.924   6.799   3.267 -0.2883 -0.3293  1.7697
    3PVA    H12  360   4.805   6.878   3.372  0.4060  0.3056  0.4540
    3PVA     C7  361   4.727   6.831   3.162 -0.0060  0.6029  0.7331
    3PVA    H13  362   4.737   6.899   3.076  1.6360 -1.8354 -1.1332
    3PVA    H14  363   4.638   6.846   3.224  0.8589 -0.0876  2.1926
    3PVA     C8  364   4.723   6.679   3.123  0.5071  0.4674  0.1653
    3PVA    H15  365   4.808   6.664   3.054  1.8987  2.4625  1.3335
    3PVA     O3  366   4.728   6.600   3.242 -0.0739  0.3912 -0.1756
    3PVA    H16  367   4.653   6.635   3.291 -0.1312 -0.7535  0.6071
    3PVA     C9  368   4.592   6.645   3.040  1.5055 -0.1658 -0.7768
    3PVA    H17  369   4.597   6.705   2.948 -0.7452  0.3555 -0.6218
    3PVA    H18  370   4.506   6.693   3.089  2.5353 -1.6959  2.8752
    3PVA    C10  371   4.560   6.497   3.022 -0.7810  0.8682  0.3494
    3PVA    H19  372   4.650   6.444   2.989 -2.0243 -1.7692  0.9401
    3PVA    H20  373   4.552   6.455   3.123  1.8923  0.3272  0.4235
    3PVA    C11  374   4.435   6.450   2.939 -0.3118  0.1019 -0.3152
    3PVA    H21  375   4.440   6.340   2.932 -3.1476 -0.1799  0.9225
    3PVA     O4  376   4.318   6.462   3.021  0.0389 -0.0926 -0.1734
    3PVA    H22  377   4.244   6.458   2.958 -1.5803 -0.7438  1.6636
    3PVA    C12  378   4.416   6.519   2.792  0.0881  0.5840  0.7205
    3PVA    H23  379   4.450   6.623   2.798 -0.8969  0.8869  1.3083
    3PVA    H24  380   4.493   6.459   2.742  0.1968  1.3952 -0.1101
    3PVA    C13  381   4.277   6.517   2.735 -0.2626 -0.3131 -1.1538
    3PVA    H25  382   4.207   6.567   2.801 -1.5109 -0.8723 -2.0188
    3PVA    H26  383   4.243   6.414   2.718  0.7917 -0.2911 -3.9909
    3PVA    C14  384   4.257   6.578   2.596 -0.2792 -0.7990 -0.6863
    3PVA    H27  385   4.259   6.687   2.606  3.0504 -0.5747 -2.4082
    3PVA     O5  386   4.379   6.555   2.519  0.9666 -0.0489 -0.7918
    3PVA    H28  387   4.453   6.613   2.544 -0.3917  2.5044 -2.2181
    3PVA    C15  388   4.133   6.541   2.512  0.8116 -1.7313 -0.5445
    3PVA    H29  389   4.044   6.556   2.575  1.5318 -1.0267  0.3211
    3PVA    H30  390   4.120   6.434   2.491  1.1761 -2.2214  1.4822
    3PVA    C16  391   4.113   6.624   2.389  0.0638  0.3474  0.8943
    3PVA    H31  392   4.086   6.727   2.416  1.8277  2.1448 -3.2893
    3PVA    H32  393   4.191   6.624   2.312 -1.7130  2.0389 -1.0268
    3PVA    C17  394   4.000   6.571   2.295 -0.0245  1.3173 -0.2458
    3PVA    H33  395   4.036   6.470   2.273 -0.6759  1.0588 -0.1352
    3PVA     O6  396   3.882   6.553   2.363  0.5298 -0.4565 -0.1544
    3PVA    H34  397   3.878   6.628   2.426 -1.0572  0.0504 -0.8266
    3PVA    C18  398   4.002   6.654   2.157 -0.0198 -0.5526 -0.0157
    3PVA    H35  399   4.010   6.759   2.185 -0.9312 -0.7239  0.9180
    3PVA    H36  400   4.090   6.619   2.101 -1.6998 -4.8291 -0.3641
    3PVA    C19  401   3.874   6.637   2.067  0.0619 -0.5468  0.5461
    3PVA    H37  402   3.871   6.534   2.029 -1.3193 -0.9506  1.6517
    3PVA    H38  403   3.780   6.647   2.123  1.8201  0.3010  3.5743
    3PVA    C20  404   3.863   6.721   1.934 -0.1514 -1.2469  0.8154
    3PVA    H39  405   3.935   6.692   1.857  0.8023  1.7698  0.4314
    3PVA     O7  406   3.896   6.865   1.954  0.8687  0.4275 -0.3071
    3PVA    H40  407   3.810   6.907   1.973 -1.1266 -3.2180 -0.3369
    3PVA    C21  408   3.719   6.706   1.875 -0.9572  0.2990  1.1033
    3PVA    H41  409   3.645   6.745   1.946 -1.0815 -0.5630  1.4595
    3PVA    H42  410   3.720   6.776   1.791  0.6304 -0.1703  0.6920
    3PVA    C22  411   3.687   6.562   1.824 -0.4659  0.5759  0.1778
    3PVA    H43  412   3.773   6.539   1.760 -2.8940  0.5888 -3.4530
    3PVA    H44  413   3.694   6.488   1.905  0.1343 -2.9488 -2.8117
    3PVA    C23  414   3.564   6.563   1.718 -0.6881  1.0701 -0.7498
    3PVA    H45  415   3.475   6.592   1.776  0.4334 -0.2874  1.8155
    3PVA     O8  416   3.598   6.647   1.605  0.3003  0.3737  0.2235
    3PVA    H46  417   3.534   6.640   1.533  1.6796 -0.0636 -1.0109
    3PVA    C24  418   3.553   6.416   1.658 -0.3129 -0.5232 -0.1037
    3PVA    H47  419   3.644   6.394   1.601  1.4188  3.4168  0.8031
    3PVA    H48  420   3.559   6.338   1.735 -1.6884 -3.0870 -2.4094
    3PVA    C25  421   3.423   6.398   1.569 -0.4332 -0.2886  0.5157
    3PVA    H49  422   3.436   6.443   1.470  4.8694  1.2744  1.6425
    3PVA    H50  423   3.334   6.433   1.623 -1.0569  0.3568 -0.8905
    3PVA    C26  424   3.382   6.255   1.566 -0.0385  1.4177 -0.5871
    3PVA    H51  425   3.411   6.211   1.663  0.0706  1.6162 -0.5291
    3PVA     O9  426   3.232   6.247   1.573 -0.7400  0.0151 -0.3998
    3PVA    H52  427   3.215   6.285   1.661  1.2116  2.0247 -0.8100
    3PVA    C27  428   3.444   6.188   1.447  0.6443  0.0353 -0.0186
    3PVA    H53  429   3.551   6.163   1.447  0.1912 -3.3248 -4.2956
    3PVA    H54  430   3.427   6.228   1.346 -1.8003 -3.9253 -1.4170
    3PVA    C28  431   3.376   6.052   1.392 -0.7225  0.9500  0.6035
    3PVA    H55  432   3.270   6.082   1.391 -1.1755 -0.5910  0.4761
    3PVA    H56  433   3.392   6.025   1.287  0.0134 -3.1809  1.6122
    3PVA    C29  434   3.391   5.920   1.480  0.3255 -1.0490 -0.4854
    3PVA    H57  435   3.495   5.917   1.515  0.6362  0.9822 -1.1111
    3PVA    O10  436   3.303   5.951   1.586 -0.6460 -0.3032  0.6970
    3PVA    H58  437   3.244   6.027   1.570  0.0484  1.9439  6.5996
    3PVA    C30  438   3.350   5.791   1.407 -0.3256 -0.2090 -0.9241
    3PVA    H59  439   3.241   5.787   1.395 -0.5320  1.7319 -0.1866
    3PVA    H60  440   3.400   5.778   1.311 -1.2210  0.8854 -1.5623
    3PVA    C31  441   3.379   5.662   1.500  0.4088 -0.4613  0.2445
    3PVA    H61  442   3.327   5.591   1.435  0.0346  1.1130 -1.2445
    3PVA    H62  443   3.331   5.679   1.597  0.6198 -2.3351  0.7135
    3PVA    C32  444   3.527   5.622   1.516 -0.2518  1.0355  1.0137
    3PVA    H63  445   3.572   5.587   1.422  1.7598  3.8735  0.8131
    3PVA    O11  446   3.617   5.715   1.560 -0.1958 -0.4078 -0.0449
    3PVA    H64  447   3.688   5.666   1.605  0.0739 -0.5187 -0.5795
    3PVA    C33  448   3.534   5.515   1.629  0.7197  0.0122 -0.7500
    3PVA    H65  449   3.511   5.555   1.729  6.3960  1.1348  0.4850
    3PVA    H66  450   3.457   5.441   1.603 -0.0286 -1.1841  3.8871
    3PVA    C34  451   3.670   5.446   1.649  0.6434  0.8827  0.2207
    3PVA    H67  452   3.647   5.354   1.704 -1.9730  0.3729 -1.5498
    3PVA    H68  453   3.708   5.418   1.549 -1.3206  4.4017 -1.7266
    3PVA    C35  454   3.789   5.528   1.724 -0.0119 -0.3883  0.7962
    3PVA    H69  455   3.744   5.608   1.783 -4.9646 -0.8488 -1.8441
    3PVA    O12  456   3.868   5.584   1.619 -0.2159  0.0580  0.0689
    3PVA    H70  457   3.959   5.565   1.649  1.5401  2.5310 -2.9015
    3PVA    C36  458   3.876   5.429   1.810  0.2149 -1.1070 -0.7380
    3PVA    H71  459   3.939   5.377   1.737 -0.0205  0.0002 -1.7711
    3PVA    H72  460   3.819   5.364   1.877 -2.1179  0.5962 -0.9494
    3PVA    C37  461   3.970   5.506   1.905 -0.1803 -0.6058  0.4185
    3PVA    H73  462   3.899   5.545   1.979 -0.4378  2.0314 -1.1053
    3PVA    H74  463   4.027   5.594   1.870 -0.8987  1.6929  4.3835
    3PVA    C38  464   4.063   5.397   1.971 -0.0186 -0.4240  0.3044
    3PVA    H75  465   4.068   5.311   1.903  0.3967  0.1727 -0.4385
    3PVA    O13  466   4.001   5.374   2.092 -0.3862  0.0959 -0.3422
    3PVA    H76  467   3.971   5.281   2.090 -0.2936  0.0703 -0.5512
    3PVA    C39  468   4.205   5.436   2.005  0.7673 -0.6173  0.3699
    3PVA    H77  469   4.208   5.512   2.084  3.1781  2.0597 -2.0890
    3PVA    H78  470   4.276   5.453   1.923  1.3538 -2.9328  0.3073
    3PVA    C40  471   4.263   5.324   2.099 -0.1911  0.0769  0.3501
    3PVA    H79  472   4.238   5.334   2.205 -1.2074 -0.0687  0.1330
    3PVA    H80  473   4.237   5.223   2.066  1.0517 -0.9810  2.4531
    3PVA    C41  474   4.419   5.321   2.095 -0.1570 -0.6574 -0.2822
    3PVA    H81  475   4.442   5.293   1.992  1.3473 -3.7966  0.7740
    3PVA    O14  476   4.478   5.444   2.140  0.1112  0.1388 -1.0046
    3PVA    H82  477   4.434   5.451   2.226  0.2553 -1.3540 -0.7840
    3PVA    C42  478   4.461   5.188   2.174  0.2628 -0.1103  0.6564
    3PVA    H83  479   4.415   5.206   2.272 -0.3757  3.8284 -0.1984
    3PVA    H84  480   4.422   5.098   2.125  1.9651 -1.7754  2.2202
    3PVA    C43  481   4.618   5.180   2.196 -0.5425 -0.5226  0.1677
    3PVA    H85  482   4.661   5.279   2.216 -2.0499  0.9032 -3.0282
    3PVA    H86  483   4.630   5.116   2.285  0.0694  0.1603  0.5907
    3PVA    C44  484   4.678   5.116   2.068  1.5248 -0.0040 -0.8473
    3PVA    H87  485   4.663   5.193   1.992  1.7377  5.2108  3.7444
    3PVA    O15  486   4.620   4.984   2.028 -0.7192 -1.0988 -0.0938
    3PVA    H88  487   4.664   4.963   1.944 -2.4953 -0.7620 -1.1435
    3PVA    C45  488   4.825   5.085   2.088  0.8471  0.5644 -0.9178
    3PVA    H89  489   4.836   5.005   2.163 -1.2515 -1.3579 -2.5484
    3PVA    H90  490   4.885   5.174   2.111  2.0329 -0.3059 -0.5108
    3PVA    C46  491   4.891   5.021   1.965 -1.0093  0.4736  1.0506
    3PVA    H91  492   4.988   4.977   1.992 -2.6622 -5.1945 -0.9072
    3PVA    H92  493   4.839   4.929   1.934 -1.8672  1.4156 -0.4440
    3PVA    C47  494   4.935   5.099   1.833  0.7474 -0.0370 -0.2725
    3PVA    H93  495   4.975   5.020   1.768  3.8966  3.2666 -2.7553
    3PVA    O16  496   4.824   5.177   1.786 -0.3781 -0.6658 -0.3672
    3PVA    H94  497   4.861   5.213   1.703 -2.0089  2.1293 -0.0308
    3PVA    C48  498   5.051   5.203   1.859 -0.2743 -0.1160  0.8769
    3PVA    H95  499   5.015   5.275   1.933  1.1857  6.3676 -3.7848
    3PVA    H96  500   5.146   5.159   1.893  0.8270 -0.4999 -2.3675
    3PVA    C49  501   5.088   5.265   1.729 -0.0177 -1.3953  0.0984
    3PVA    H97  502   5.008   5.330   1.692  1.5610 -0.1763 -1.4016
    3PVA    H98  503   5.087   5.184   1.656  1.1543 -0.7222 -0.7155
    3PVA    C50  504   5.227   5.345   1.744 -0.8337  0.8856 -0.0058
    3PVA    H99  505   5.240   5.388   1.844 -2.2491  0.2238  0.4906
    3PVA    O17  506   5.326   5.249   1.706 -0.0763  0.2818 -0.5325
    3PVA   H100  507   5.414   5.291   1.708  0.2340 -0.1861 -2.2803
    3PVA    C51  508   5.229   5.467   1.662 -0.9968 -0.9198  0.6386
    3PVA   H101  509   5.126   5.506   1.655 -0.3158  1.0335  1.0876
    3PVA   H102  510   5.256   5.454   1.556  2.6751  0.3141  1.2803
    4PVA     C1  511   5.031   7.629   3.780 -1.4153  0.2807  0.2551
    4PVA     H1  512   5.128   7.579   3.798  0.3613  2.9712 -1.1671
    4PVA     H2  513   4.963   7.543   3.790  1.6248 -2.4060 -0.1826
    4PVA     C2  514   5.009   0.028   3.902  0.4556  0.0756  0.0669
    4PVA     H3  515   5.108   0.069   3.927 -0.1192 -0.0137  2.7382
    4PVA     O1  516   4.900   0.107   3.862  0.8252 -0.8435 -0.6094
    4PVA     H4  517   4.837   0.049   3.816 -0.0921 -0.9580  0.7555
    4PVA     C3  518   4.968   7.641   4.024  0.9117  0.2460 -0.6023
    4PVA     H5  519   5.034   7.565   4.067 -2.1863 -0.8987  2.5956
    4PVA     H6  520   4.881   7.587   3.985  1.4955  0.6545 -2.6007
    4PVA     C4  521   4.908   0.046   4.140 -0.4564  1.5570  0.4509
    4PVA     H7  522   4.827   7.668   4.181  2.6054 -0.9813  3.2430
    4PVA     H8  523   4.857   0.132   4.096 -0.6139  2.0692  1.5985
    4PVA     C5  524   5.019   0.071   4.247 -0.2635  0.0973  0.5562
    4PVA     H9  525   5.113   0.086   4.192 -0.3869 -1.8907 -0.2615
    4PVA     O2  526   5.032   7.643   4.323 -0.0121  1.3069  0.2670
    4PVA    H10  527   5.100   7.676   4.385  0.0509  2.8786 -0.5801
    4PVA     C6  528   4.985   0.194   4.325  1.3604 -0.9147  0.2922
    4PVA    H11  529   4.949   0.271   4.256 -3.0130 -1.5792  1.5658
    4PVA    H12  530   4.896   0.179   4.386  1.3693 -5.3171 -0.4504
    4PVA     C7  531   5.101   0.244   4.417  0.2222  0.0942 -0.5912
    4PVA    H13  532   5.156   0.322   4.364 -0.5295  0.5039 -0.7793
    4PVA    H14  533   5.168   0.161   4.443  0.9966  0.4330 -1.4857
    4PVA     C8  534   5.056   0.314   4.551 -0.0992  0.0191 -0.0414
    4PVA    H15  535   4.969   0.371   4.519 -1.0337 -0.8764  0.8255
    4PVA     O3  536   5.143   0.421   4.590 -0.0681 -0.7329 -0.0028
    4PVA    H16  537   5.140   0.427   4.687 -3.5842 -2.8907  0.1973
    4PVA     C9  538   5.022   0.212   4.659  0.6205 -0.2182 -0.3519
    4PVA    H17  539   5.107   0.167   4.713 -0.0660  0.8788  1.7381
    4PVA    H18  540   4.953   0.127   4.650 -0.5172  0.7302 -0.7084
    4PVA    C10  541   4.946   0.289   4.778 -1.0650  0.7077  0.4069
    4PVA    H19  542   5.021   0.352   4.826 -0.7351  0.8596 -0.2920
    4PVA    H20  543   4.874   0.360   4.736 -0.4249 -0.1573 -2.4184
    4PVA    C11  544   4.904   0.178   4.882 -0.2841 -0.8075  0.9524
    4PVA    H21  545   5.002   0.130   4.890  2.2664  2.8748 -3.4826
    4PVA     O4  546   4.801   0.091   4.830 -1.0323 -0.2195  0.2943
    4PVA    H22  547   4.837   0.002   4.815 -1.4528 -0.0398 -2.1025
    4PVA    C12  548   4.853   0.255   5.007 -0.7287  1.7827 -0.3564
    4PVA    H23  549   4.927   0.318   5.058  0.1939 -1.3131  2.5207
    4PVA    H24  550   4.776   0.324   4.972 -0.2829  2.7516  0.5391
    4PVA    C13  551   4.819   0.155   5.128 -0.3530 -1.1429  0.3348
    4PVA    H25  552   4.906   0.088   5.135  3.7468  3.2549 -2.2774
    4PVA    H26  553   4.837   0.213   5.220 -1.6733  0.1920 -0.2135
    4PVA    C14  554   4.674   0.084   5.132 -0.2709  0.5387  0.1567
    4PVA    H27  555   4.599   0.156   5.098  0.2222  2.2531  2.3799
    4PVA     O5  556   4.692   7.655   5.045  0.3944  0.1439 -0.3169
    4PVA    H28  557   4.700   0.014   4.958  1.2990 -0.7847 -0.7252
    4PVA    C15  558   4.629   0.044   5.268  1.3289 -1.3862 -0.0321
    4PVA    H29  559   4.659   0.115   5.345 -2.6432  2.0825 -1.3286
    4PVA    H30  560   4.670   7.641   5.321  0.3093 -1.0397  1.3674
    4PVA    C16  561   4.471   0.028   5.281 -0.0736 -0.4974 -0.9955
    4PVA    H31  562   4.407   0.110   5.246 -0.0810 -0.4187 -0.8017
    4PVA    H32  563   4.446   7.634   5.209  1.9968 -1.5773 -0.6130
    4PVA    C17  564   4.414   7.648   5.417 -0.4729  0.2624 -0.8648
    4PVA    H33  565   4.436   7.542   5.429 -1.5554  0.1235  0.0550
    4PVA     O6  566   4.484   0.019   5.524  0.2372 -0.0028 -0.0083
    4PVA    H34  567   4.467   0.115   5.531 -0.1623  0.0906 -1.8026
    4PVA    C18  568   4.267   7.655   5.430 -0.0410 -1.1609  0.1924
    4PVA    H35  569   4.215   7.595   5.355  3.9340 -0.0728 -3.8926
    4PVA    H36  570   4.252   7.612   5.530  0.5823 -0.3085  0.6655
    4PVA    C19  571   4.219   0.115   5.437  0.5893 -0.8502 -1.5065
    4PVA    H37  572   4.253   0.177   5.353  3.0638  0.4017  0.2668
    4PVA    H38  573   4.245   0.163   5.533 -2.3230 -4.9604  1.7093
    4PVA    C20  574   4.061   0.118   5.447  0.5216 -0.1310  0.9508
    4PVA    H39  575   4.059   0.081   5.550  0.9074 -1.7280  0.4225
    4PVA     O7  576   3.988   0.024   5.376 -0.5722 -0.5443  0.1505
    4PVA    H40  577   3.900   0.062   5.357 -0.0059  0.3583 -0.7622
    4PVA    C21  578   4.027   0.269   5.444  0.0250  0.4996  0.8186
    4PVA    H41  579   4.091   0.325   5.375  1.4041  1.2957  2.6552
    4PVA    H42  580   4.044   0.310   5.544 -2.4771  2.8775  0.4002
    4PVA    C22  581   3.878   0.300   5.410  0.9114 -0.7670 -0.3493
    4PVA    H43  582   3.802   0.248   5.470 -0.7527  1.4369 -0.4008
    4PVA    H44  583   3.852   0.253   5.314  0.9991 -1.3806 -0.0783
    4PVA    C23  584   3.828   0.438   5.404  0.0701 -0.3276  0.1586
    4PVA    H45  585   3.733   0.440   5.349 -0.6290 -1.9351  1.2483
    4PVA     O8  586   3.808   0.491   5.540 -0.7432  0.5943 -0.3743
    4PVA    H46  587   3.719   0.477   5.576 -0.1222 -1.5397  0.4546
    4PVA    C24  588   3.912   0.536   5.309  1.4914 -0.6804 -0.3668
    4PVA    H47  589   4.018   0.534   5.339  0.3049 -0.4924  4.8532
    4PVA    H48  590   3.888   0.536   5.202 -2.1237  4.8523  0.0500
    4PVA    C25  591   3.875   0.693   5.341 -0.3821  0.1693  0.6852
    4PVA    H49  592   3.866   0.719   5.448 -1.1388  1.9190  0.2316
    4PVA    H50  593   3.770   0.687   5.312 -0.2929 -1.6892  0.6026
    4PVA    C26  594   3.930   0.814   5.259 -0.3511 -0.4502 -0.4001
    4PVA    H51  595   3.989   0.775   5.175  1.5949  2.2144 -0.4128
    4PVA     O9  596   3.826   0.890   5.205  1.0515 -0.9649  0.5842
    4PVA    H52  597   3.758   0.821   5.208  1.9448 -2.4529 -4.3129
    4PVA    C27  598   4.004   0.916   5.342  1.1247 -0.3930 -0.3570
    4PVA    H53  599   3.939   0.976   5.406  4.5171  3.9183 -0.4633
    4PVA    H54  600   4.072   0.860   5.408 -0.8346 -0.9477  1.2778
    4PVA    C28  601   4.079   1.019   5.252  0.5002 -0.4947 -0.4444
    4PVA    H55  602   4.112   0.968   5.161  1.3850  1.2987 -1.1744
    4PVA    H56  603   4.002   1.085   5.209 -1.1319 -2.3335 -0.4896
    4PVA    C29  604   4.212   1.088   5.314 -0.0955 -0.0169  0.0562
    4PVA    H57  605   4.300   1.023   5.297  0.9538  0.6578  2.4745
    4PVA    O10  606   4.242   1.213   5.268 -0.5202  0.5189  0.3825
    4PVA    H58  607   4.174   1.268   5.312  0.6037  0.4359  2.3580
    4PVA    C30  608   4.209   1.108   5.465  0.1298  0.4356  0.0329
    4PVA    H59  609   4.132   1.178   5.501 -1.2443 -0.5646 -0.8758
    4PVA    H60  610   4.194   1.010   5.511 -0.7227 -0.7326 -2.5768
    4PVA    C31  611   4.349   1.151   5.530  0.5148  0.2415 -0.8523
    4PVA    H61  612   4.382   1.240   5.476  1.4231  4.3220  5.3759
    4PVA    H62  613   4.426   1.074   5.516 -1.3698 -1.8283 -0.5196
    4PVA    C32  614   4.341   1.212   5.675  1.5841  0.2545  1.3768
    4PVA    H63  615   4.249   1.271   5.675  3.2570  3.0917 -0.6753
    4PVA    O11  616   4.318   1.114   5.777  0.4267 -0.2517 -0.5000
    4PVA    H64  617   4.227   1.139   5.802 -0.0817  2.3800 -4.1583
    4PVA    C33  618   4.455   1.318   5.695 -0.4003 -0.1482 -0.2212
    4PVA    H65  619   4.439   1.410   5.637  2.1683  0.9131  0.5927
    4PVA    H66  620   4.553   1.298   5.650  0.4264  1.5058  0.7483
    4PVA    C34  621   4.477   1.352   5.839  0.2171 -0.1840  0.9288
    4PVA    H67  622   4.384   1.344   5.897 -0.7002  3.7775  0.2431
    4PVA    H68  623   4.561   1.291   5.876 -0.8195 -2.1201  0.2261
    4PVA    C35  624   4.522   1.492   5.855 -0.8364 -2.1580 -0.5530
    4PVA    H69  625   4.454   1.565   5.811  1.5808  2.1268  2.1128
    4PVA    O12  626   4.651   1.502   5.791 -0.7531 -0.5889 -0.3270
    4PVA    H70  627   4.693   1.415   5.805  2.4167  1.1841  2.6008
    4PVA    C36  628   4.557   1.527   5.997 -0.8676  0.7368  0.4227
    4PVA    H71  629   4.589   1.432   6.042 -1.6925  1.6058  3.0752
    4PVA    H72  630   4.643   1.596   5.996 -1.2785  1.2499 -0.9149
    4PVA    C37  631   4.439   1.561   6.086 -0.9286  0.0720  0.0766
    4PVA    H73  632   4.355   1.490   6.091  0.4540 -1.6215  0.6147
    4PVA    H74  633   4.399   1.659   6.060 -1.8327 -0.3784 -0.2712
    4PVA    C38  634   4.500   1.572   6.238  0.2220 -0.1336  0.3816
    4PVA    H75  635   4.605   1.601   6.222 -0.2439  1.1791 -0.3748
    4PVA    O13  636   4.424   1.672   6.313 -0.2237 -0.6317 -0.1941
    4PVA    H76  637   4.332   1.641   6.321 -1.4002  2.0105 -2.0511
    4PVA    C39  638   4.473   1.441   6.321  0.2226 -0.0742  0.2401
    4PVA    H77  639   4.467   1.360   6.248 -0.9512  1.6371 -1.6416
    4PVA    H78  640   4.377   1.455   6.373 -0.1173 -0.7762 -0.1868
    4PVA    C40  641   4.581   1.433   6.426 -0.4166  0.6133 -0.3022
    4PVA    H79  642   4.627   1.532   6.437  0.4535  0.2421 -0.5003
    4PVA    H80  643   4.666   1.385   6.376  1.7597  3.1223  0.7193
    4PVA    C41  644   4.548   1.365   6.569  0.0694 -0.2945  0.1360
    4PVA    H81  645   4.628   1.386   6.642  3.1668  0.9549 -3.2831
    4PVA    O14  646   4.408   1.390   6.614  0.2997 -0.3771 -0.9115
    4PVA    H82  647   4.433   1.371   6.706  0.2255  0.9389 -0.6110
    4PVA    C42  648   4.566   1.220   6.560 -0.2419 -0.4801 -0.2276
    4PVA    H83  649   4.515   1.178   6.647 -0.9871 -1.5572 -1.1450
    4PVA    H84  650   4.514   1.189   6.468  3.0165  1.1420 -2.8587
    4PVA    C43  651   4.708   1.178   6.549 -0.6726  0.5852  0.2368
    4PVA    H85  652   4.769   1.235   6.620 -1.1124  0.1149  0.9991
    4PVA    H86  653   4.738   1.192   6.444 -4.9729  4.7799 -0.7552
    4PVA    C44  654   4.729   1.019   6.583  0.8598 -0.9312  0.3288
    4PVA    H87  655   4.677   0.977   6.496  2.7868 -2.1533 -0.2913
    4PVA    O15  656   4.646   0.983   6.690 -0.1500  0.0638 -1.3462
    4PVA    H88  657   4.701   0.910   6.723  0.6922 -0.3162 -3.4479
    4PVA    C45  658   4.872   0.957   6.585  0.8758 -0.5810  0.1922
    4PVA    H89  659   4.922   0.984   6.491 -1.3168  3.0764 -0.1381
    4PVA    H90  660   4.853   0.849   6.586 -1.7129 -0.1843  0.6279
    4PVA    C46  661   4.956   1.017   6.692  0.1898 -0.3014 -0.8689
    4PVA    H91  662   5.058   1.001   6.655  1.1830  1.6856  0.7557
    4PVA    H92  663   4.933   1.124   6.705  1.3801 -0.2799  1.6734
    4PVA    C47  664   4.951   0.960   6.832  0.3373 -0.9530 -0.0500
    4PVA    H93  665   4.906   1.040   6.893  2.0576 -1.5664  2.1471
    4PVA    O16  666   4.864   0.853   6.830 -0.2483  0.9175  0.2954
    4PVA    H94  667   4.891   0.780   6.888  2.4424 -1.2195 -3.1981
    4PVA    C48  668   5.097   0.916   6.869  0.4697  0.1315 -0.8858
    4PVA    H95  669   5.118   0.830   6.804  0.9843 -2.0480  1.9077
    4PVA    H96  670   5.167   0.998   6.853 -0.2541  1.2488  1.2433
    4PVA    C49  671   5.115   0.839   6.997  0.7064  1.0943 -0.2812
    4PVA    H97  672   5.098   0.732   6.981  0.6816  1.0416  0.0963
    4PVA    H98  673   5.044   0.888   7.065 -0.7243  4.4339 -3.8254
    4PVA    C50  674   5.250   0.866   7.071 -0.4519  0.6755  0.4641
    4PVA    H99  675   5.330   0.813   7.016 -3.5141 -5.9903  1.4081
    4PVA    O17  676   5.242   0.801   7.192 -0.8117  1.3147 -0.1762
    4PVA   H100  677   5.148   0.787   7.209 -1.3727  2.2826 -2.1702
    4PVA    C51  678   5.272   1.018   7.107  1.2633  0.5649 -0.3767
    4PVA   H101  679   5.275   1.081   7.018 -0.0550 -1.0932 -1.6508
    4PVA   H102  680   5.175   1.041   7.152  1.0989 -1.4619  0.3852
    5PVA     C1  681   6.908   0.827   4.587 -0.1160 -0.1207 -0.3548
    5PVA     H1  682   6.932   0.742   4.652 -2.6534  2.1848  4.0790
    5PVA     H2  683   6.972   0.858   4.503 -2.4154 -4.2849 -4.1157
    5PVA     C2  684   6.896   0.925   4.722  0.6995 -1.0697  1.3849
    5PVA     H3  685   6.794   0.897   4.753 -0.4387  0.9287 -0.2657
    5PVA     O1  686   6.900   1.055   4.670 -0.0863  0.4167 -0.6881
    5PVA     H4  687   6.820   1.086   4.623 -0.1806  0.0603 -0.7614
    5PVA     C3  688   6.997   0.918   4.841 -0.2791 -1.2232  1.0276
    5PVA     H5  689   7.095   0.948   4.804  0.6777 -0.0212  4.2803
    5PVA     H6  690   6.999   0.820   4.891 -3.0514  0.2574  4.5079
    5PVA     C4  691   6.986   1.021   4.960  0.5549  0.3237 -0.4571
    5PVA     H7  692   6.994   1.124   4.923 -3.7083  1.8191  2.0288
    5PVA     H8  693   6.881   1.041   4.985  0.1134  2.8534 -3.6707
    5PVA     C5  694   7.053   0.997   5.095 -0.8969  0.4397  0.5304
    5PVA     H9  695   7.066   0.892   5.124 -1.3616  0.1822 -0.1428
    5PVA     O2  696   7.198   1.023   5.066  0.7192  0.1183 -0.7910
    5PVA    H10  697   7.239   0.937   5.086 -3.0436 -1.4733  1.2583
    5PVA     C6  698   7.022   1.074   5.236 -0.5625 -0.6000  0.3028
    5PVA    H11  699   7.104   1.136   5.273  0.4524  1.4559 -4.6018
    5PVA    H12  700   6.951   1.152   5.207  0.9784  2.3741  3.7920
    5PVA     C7  701   6.948   0.969   5.342  0.2429  0.2204  0.1416
    5PVA    H13  702   6.941   0.865   5.309 -1.6339 -0.9941  3.8057
    5PVA    H14  703   6.839   0.977   5.341  0.1644 -0.0879 -2.9265
    5PVA     C8  704   7.007   0.968   5.494 -0.3600  0.2803 -0.6403
    5PVA    H15  705   7.116   0.977   5.486 -0.3082 -1.8516 -4.5915
    5PVA     O3  706   6.958   0.856   5.553  0.1680 -0.5546 -0.7206
    5PVA    H16  707   7.021   0.786   5.528  2.5759  1.9248 -2.1360
    5PVA     C9  708   6.961   1.080   5.592 -0.1637  0.2964  0.3226
    5PVA    H17  709   6.852   1.093   5.588 -0.4453 -1.5857  1.0110
    5PVA    H18  710   7.004   1.174   5.554 -0.7217  1.7684  3.0867
    5PVA    C10  711   7.012   1.071   5.737  0.4180 -0.0099  1.6961
    5PVA    H19  712   7.109   1.021   5.726 -0.7892 -1.8953 -2.4374
    5PVA    H20  713   6.947   0.992   5.775 -4.3251  1.8875 -1.5490
    5PVA    C11  714   7.033   1.188   5.844  0.2683  0.1214 -0.4429
    5PVA    H21  715   7.087   1.266   5.789  0.1304 -0.7711 -1.9014
    5PVA     O4  716   6.902   1.226   5.884 -1.2021  0.6603 -0.6185
    5PVA    H22  717   6.882   1.150   5.942 -5.0723 -0.3709 -2.8794
    5PVA    C12  718   7.134   1.165   5.968 -2.1355 -0.4807 -0.1945
    5PVA    H23  719   7.120   1.064   6.009 -4.6848  0.2909  1.0927
    5PVA    H24  720   7.241   1.152   5.948 -1.3843  1.5723  2.0099
    5PVA    C13  721   7.126   1.272   6.083 -0.6251  0.2302 -0.7435
    5PVA    H25  722   7.038   1.246   6.143  1.2258 -6.3181 -0.0353
    5PVA    H26  723   7.116   1.369   6.033 -1.5318 -0.8706 -2.8135
    5PVA    C14  724   7.254   1.279   6.179  0.0569 -1.1689  0.1411
    5PVA    H27  725   7.352   1.274   6.129 -0.1271 -1.8610 -0.1468
    5PVA     O5  726   7.262   1.170   6.248  0.2091 -0.3394  0.3958
    5PVA    H28  727   7.346   1.132   6.218 -1.0384 -0.0692 -4.1341
    5PVA    C15  728   7.256   1.404   6.276 -0.1468 -0.4111 -0.4689
    5PVA    H29  729   7.171   1.382   6.341  0.1481 -0.6163 -0.1498
    5PVA    H30  730   7.236   1.503   6.233 -2.5335 -0.4039  0.5249
    5PVA    C16  731   7.381   1.423   6.381  1.9711 -0.1902 -0.0412
    5PVA    H31  732   7.474   1.438   6.323  1.9623  1.0949  0.2343
    5PVA    H32  733   7.399   1.328   6.433 -1.9517 -0.7827  0.5130
    5PVA    C17  734   7.357   1.520   6.499  0.1731  0.9708 -0.4066
    5PVA    H33  735   7.288   1.493   6.579 -0.2006  1.3269 -0.6034
    5PVA     O6  736   7.305   1.641   6.447  0.1510 -0.7149  0.1259
    5PVA    H34  737   7.378   1.676   6.392 -1.3552  0.7319 -1.0474
    5PVA    C18  738   7.496   1.547   6.557 -0.2449  0.5450 -0.0775
    5PVA    H35  739   7.485   1.515   6.662  3.1192  0.3502  0.3287
    5PVA    H36  740   7.560   1.477   6.502 -4.7868 -2.5496 -1.9807
    5PVA    C19  741   7.531   1.701   6.580  0.2238  0.4284 -0.6350
    5PVA    H37  742   7.447   1.748   6.633  0.8845  0.6146  0.2846
    5PVA    H38  743   7.540   1.743   6.480  0.6467 -2.9500 -2.1581
    5PVA    C20  744   7.654   1.729   6.674  0.4098  0.0494  0.1291
    5PVA    H39  745   7.631   1.665   6.760  5.6583 -0.5761  1.4375
    5PVA     O7  746   0.012   1.702   6.605  0.0663  1.1101  0.3586
    5PVA    H40  747   0.046   1.612   6.617 -1.0201  0.5345 -0.6517
    5PVA    C21  748   7.646   1.875   6.753  0.5178  0.4956  0.8038
    5PVA    H41  749   7.541   1.902   6.762 -0.0974 -1.4265 -0.0334
    5PVA    H42  750   7.690   1.942   6.678 -1.4895 -0.0931 -1.0290
    5PVA    C22  751   7.721   1.881   6.892 -0.7812 -0.1755  0.0369
    5PVA    H43  752   7.707   1.782   6.938 -0.3072 -0.7062 -0.9129
    5PVA    H44  753   0.064   1.883   6.871 -0.4396  4.1171  1.3687
    5PVA    C23  754   7.676   1.992   6.993 -0.4736  0.0897 -0.4513
    5PVA    H45  755   7.697   2.089   6.947 -3.2910  0.3025 -1.5061
    5PVA     O8  756   7.537   1.996   7.006  0.1105 -0.4129 -1.0954
    5PVA    H46  757   7.524   2.082   7.048  1.4586  1.3404 -3.9694
    5PVA    C24  758   7.743   1.989   7.132 -0.0360  0.5244 -0.3249
    5PVA    H47  759   7.747   1.886   7.169  0.0086  0.5775 -0.1846
    5PVA    H48  760   0.086   2.000   7.118  0.4274  0.2748  2.5418
    5PVA    C25  761   7.681   2.087   7.248  0.1165 -0.8385 -1.1723
    5PVA    H49  762   7.616   2.029   7.314  3.4790 -2.0296  1.4243
    5PVA    H50  763   7.628   2.175   7.211  1.1030  0.7018  0.8724
    5PVA    C26  764   0.024   2.172   7.338 -0.9211 -0.1625  0.2621
    5PVA    H51  765   0.052   2.264   7.286 -1.4737  1.3034  2.4546
    5PVA     O9  766   0.127   2.086   7.353 -0.4376 -0.1937  1.0229
    5PVA    H52  767   0.104   2.003   7.399  2.5064 -1.6366  0.1513
    5PVA    C27  768   7.745   2.228   7.475 -0.6843  0.8856  0.0092
    5PVA    H53  769   7.672   2.174   7.536  1.2742  0.4214  2.0833
    5PVA    H54  770   7.692   2.320   7.450 -1.8035 -0.6988 -4.3225
    5PVA    C28  771   0.094   2.262   7.581 -0.3367  0.1246 -0.6312
    5PVA    H55  772   0.095   2.190   7.664  0.7784 -1.0841 -1.6515
    5PVA    H56  773   0.196   2.238   7.548  0.7819  1.0894  1.8539
    5PVA    C29  774   0.112   2.402   7.653 -0.6081  0.1954 -0.8866
    5PVA    H57  775   0.103   2.479   7.576 -3.3248 -0.2206 -1.0720
    5PVA    O10  776   0.010   2.425   7.741 -0.2868 -0.7975 -0.5625
    5PVA    H58  777   0.021   2.338   7.785  3.7282 -0.5386 -0.6967
    5PVA    C30  778   0.247   2.426   7.723 -0.1457  1.0511  0.0432
    5PVA    H59  779   0.286   2.342   7.781  0.8957 -1.5163 -3.9380
    5PVA    H60  780   0.314   2.440   7.637 -1.4661  4.5531 -0.5708
    5PVA    C31  781   0.263   2.553   7.823  0.2361  0.1675 -0.2234
    5PVA    H61  782   0.232   2.570   7.927  2.2957 -1.8128  0.7794
    5PVA    H62  783   0.190   2.621   7.777 -1.6933 -1.3145  0.4808
    5PVA    C32  784   0.396   2.647   7.828  0.2878 -2.0204 -0.3495
    5PVA    H63  785   0.382   2.720   7.748 -2.3635  2.1284  3.4256
    5PVA    O11  786   0.515   2.567   7.787 -0.0596 -0.2714  0.6256
    5PVA    H64  787   0.585   2.633   7.773  1.5269 -1.6883  1.3671
    5PVA    C33  788   0.445   2.728   7.955 -0.4078 -0.4292  0.4308
    5PVA    H65  789   0.483   2.671   8.041 -0.6856  0.9822  1.5214
    5PVA    H66  790   0.353   2.766   8.000 -0.9568  0.9591 -1.7157
    5PVA    C34  791   0.539   2.853   7.933 -1.7413 -0.4046  1.0052
    5PVA    H67  792   0.528   2.892   7.831 -0.6880  4.2571  2.4648
    5PVA    H68  793   0.491   2.932   7.992  3.8029  2.8192  1.9079
    5PVA    C35  794   0.692   2.841   7.981  0.3143  0.0293  0.2803
    5PVA    H69  795   0.682   2.815   8.087 -3.7477 -3.1688 -0.6672
    5PVA    O12  796   0.744   2.737   7.903 -0.2596  0.2184  0.1839
    5PVA    H70  797   0.673   2.672   7.918  0.2846 -0.0667  1.8105
    5PVA    C36  798   0.777   2.981   7.957  0.4828 -0.3805 -1.0537
    5PVA    H71  799   0.721   3.065   8.000  1.9019 -0.9739  2.2758
    5PVA    H72  800   0.790   2.999   7.850  3.2751  2.0052 -0.4272
    5PVA    C37  801   0.921   2.971   8.019 -0.7902 -0.2735  1.1600
    5PVA    H73  802   0.893   2.951   0.026 -2.3579  0.5395  0.9143
    5PVA    H74  803   0.975   2.885   7.978 -4.7450 -2.0960 -0.7291
    5PVA    C38  804   1.019   3.099   8.020  0.2878 -0.0306 -0.4853
    5PVA    H75  805   0.975   3.182   8.076  1.3148 -0.8289  1.5862
    5PVA    O13  806   1.033   3.141   7.887  0.1191  1.0034 -0.1302
    5PVA    H76  807   0.957   3.202   7.888 -1.6127 -0.7487  4.8130
    5PVA    C39  808   1.166   3.074   8.063 -1.0386  0.1228  0.5482
    5PVA    H77  809   1.184   2.967   8.052 -1.1904  0.3540 -2.7744
    5PVA    H78  810   1.167   3.114   0.068  3.4310  1.8377  0.0631
    5PVA    C40  811   1.284   3.150   7.986 -0.6940  0.6703  0.1638
    5PVA    H79  812   1.318   3.090   7.901 -1.3357 -0.1752  0.4772
    5PVA    H80  813   1.239   3.243   7.950 -0.5579  0.8927  0.5646
    5PVA    C41  814   1.413   3.191   8.059  0.1810 -0.6542 -0.1367
    5PVA    H81  815   1.388   3.233   0.060 -4.0836  0.3864 -1.4736
    5PVA    O14  816   1.475   3.073   8.072  0.1531  0.5282 -0.3482
    5PVA    H82  817   1.500   3.040   7.984  1.6478  1.1984 -0.1964
    5PVA    C42  818   1.506   3.292   7.979 -0.1974  0.1208 -0.4603
    5PVA    H83  819   1.440   3.376   7.954  1.2252  1.0912 -1.0985
    5PVA    H84  820   1.538   3.247   7.884  2.0674  2.0129 -0.6666
    5PVA    C43  821   1.636   3.346   8.050  0.4622 -0.2498 -0.1370
    5PVA    H85  822   1.687   3.279   0.023  2.0307 -0.4571 -1.4022
    5PVA    H86  823   1.598   3.425   0.019  0.2048  1.2797 -2.0238
    5PVA    C44  824   1.739   3.411   7.953 -0.3368 -0.6833 -0.3861
    5PVA    H87  825   1.769   3.337   7.878  0.5890  1.0854 -1.8400
    5PVA    O15  826   1.656   3.502   7.897  0.6325 -1.0980 -0.5145
    5PVA    H88  827   1.573   3.457   7.876 -0.0549 -0.6916  1.2364
    5PVA    C45  828   1.868   3.488   8.014 -0.2869 -0.0152  0.7979
    5PVA    H89  829   1.886   3.444   0.016 -1.0914 -1.1670  0.4585
    5PVA    H90  830   1.830   3.590   8.023 -3.1728 -0.7700 -1.5531
    5PVA    C46  831   2.004   3.479   7.942  0.3869 -0.1780  0.5480
    5PVA    H91  832   1.979   3.498   7.837 -2.2714  1.0463  1.2929
    5PVA    H92  833   2.054   3.382   7.931  0.4076 -0.0597 -0.4787
    5PVA    C47  834   2.116   3.569   7.992  0.9637 -1.0253  0.0238
    5PVA    H93  835   2.070   3.669   7.990 -0.4119 -1.4236  3.7105
    5PVA    O16  836   2.162   3.519   0.013 -0.2864 -0.4619  0.5749
    5PVA    H94  837   2.241   3.467   8.088  1.4420  2.0107  0.5408
    5PVA    C48  838   2.241   3.559   7.894 -0.9321  0.5398 -0.0496
    5PVA    H95  839   2.286   3.462   7.921 -1.2935  0.4915  0.3893
    5PVA    H96  840   2.204   3.544   7.792  1.0766  2.1051 -1.0773
    5PVA    C49  841   2.354   3.670   7.903  0.8745 -0.3890 -0.7038
    5PVA    H97  842   2.433   3.623   7.961  0.4142  0.4196  0.6372
    5PVA    H98  843   2.313   3.759   7.953  2.4996 -0.1332  0.2458
    5PVA    C50  844   2.427   3.705   7.756 -0.2445  1.2858 -0.4117
    5PVA    H99  845   2.350   3.704   7.678 -2.5027 -1.4046  1.6480
    5PVA    O17  846   2.508   3.612   7.706  0.2486 -0.0789 -1.0119
    5PVA   H100  847   2.441   3.548   7.679  1.1609 -0.1522 -3.2542
    5PVA    C51  848   2.505   3.844   7.767 -0.2987  0.3214  0.1569
    5PVA   H101  849   2.426   3.919   7.750 -1.1813 -0.3192  1.2941
    5PVA   H102  850   2.551   3.857   7.866  0.4226 -4.7425  0.7093
    6PVA     C1  851   6.667   1.402   4.829  0.2702  0.0765 -0.3867
    6PVA     H1  852   6.662   1.414   4.938  2.0034 -1.0587 -0.1301
    6PVA     H2  853   6.624   1.487   4.775 -0.3879 -1.6336 -2.7304
    6PVA     C2  854   6.814   1.420   4.785 -0.2325  0.6124  0.4069
    6PVA     H3  855   6.872   1.330   4.809 -0.8119  0.0889 -0.1022
    6PVA     O1  856   6.869   1.534   4.837 -0.1293 -0.5709 -0.3493
    6PVA     H4  857   6.789   1.589   4.826 -0.3638 -0.7315  0.4823
    6PVA     C3  858   6.833   1.427   4.628  0.1964 -0.4868 -0.3012
    6PVA     H5  859   6.942   1.434   4.614 -0.2954  1.6747 -4.7611
    6PVA     H6  860   6.783   1.342   4.580 -0.0562 -1.3133  1.3507
    6PVA     C4  861   6.769   1.551   4.548 -0.9282 -1.1322 -0.1040
    6PVA     H7  862   6.736   1.632   4.615  1.9559  0.2781 -0.2234
    6PVA     H8  863   6.855   1.585   4.490  0.4768 -2.1531  1.3049
    6PVA     C5  864   6.655   1.524   4.453 -0.1910  1.3150  0.8639
    6PVA     H9  865   6.703   1.448   4.390  2.0003 -2.7437  6.6096
    6PVA     O2  866   6.547   1.460   4.521  0.8331  0.2291  0.3214
    6PVA    H10  867   6.593   1.382   4.556 -0.4534  0.3194  2.4001
    6PVA     C6  868   6.592   1.647   4.384 -0.3610  0.2723  0.0286
    6PVA    H11  869   6.579   1.735   4.449 -2.1592 -0.9834  1.4761
    6PVA    H12  870   6.664   1.674   4.306 -2.2655  0.6437 -1.6725
    6PVA     C7  871   6.476   1.632   4.291 -0.8262 -0.5507  0.5510
    6PVA    H13  872   6.483   1.538   4.236 -0.2706 -0.8880  1.1850
    6PVA    H14  873   6.500   1.709   4.217 -0.7448  1.9413  2.9841
    6PVA     C8  874   6.339   1.663   4.348 -0.0786 -0.5285 -0.1227
    6PVA    H15  875   6.360   1.751   4.411 -0.6270 -1.2057  1.0134
    6PVA     O3  876   6.300   1.557   4.426 -1.0280  0.5457  0.3751
    6PVA    H16  877   6.378   1.521   4.471  0.6453 -0.9987 -3.3531
    6PVA     C9  878   6.230   1.686   4.235 -0.6830 -0.3855 -0.4391
    6PVA    H17  879   6.235   1.607   4.160  1.6792 -0.4423 -0.2980
    6PVA    H18  880   6.262   1.780   4.187 -2.4286  1.0277  1.0107
    6PVA    C10  881   6.094   1.733   4.281  0.6382  0.2959  0.7003
    6PVA    H19  882   6.100   1.835   4.322  0.7979  0.0598  1.2786
    6PVA    H20  883   6.032   1.773   4.200 -3.1959 -0.8474  2.8405
    6PVA    C11  884   5.998   1.642   4.366  0.1495 -0.1788  0.0239
    6PVA    H21  885   6.014   1.654   4.474 -0.7858 -1.2308  0.3046
    6PVA     O4  886   6.020   1.507   4.316  0.7798 -1.1334 -0.0528
    6PVA    H22  887   6.117   1.495   4.316  0.9736 -0.7240  3.2650
    6PVA    C12  888   5.849   1.679   4.364 -0.7623  0.0336  0.7577
    6PVA    H23  889   5.821   1.780   4.332 -4.8139 -2.3643 -4.6722
    6PVA    H24  890   5.789   1.619   4.295  2.7159 -3.1305  0.1866
    6PVA    C13  891   5.777   1.648   4.494  0.0695  0.0168 -0.3032
    6PVA    H25  892   5.779   1.717   4.579 -4.0704  1.5964 -1.2597
    6PVA    H26  893   5.802   1.550   4.535 -1.6656  0.8565  3.1215
    6PVA    C14  894   5.619   1.631   4.463 -0.6056 -0.7342  0.7717
    6PVA    H27  895   5.606   1.551   4.390  2.9928  1.1260 -2.2851
    6PVA     O5  896   5.571   1.748   4.413 -1.2438  0.7762  0.1821
    6PVA    H28  897   5.618   1.768   4.331  2.0907  0.9481  1.9841
    6PVA    C15  898   5.546   1.586   4.596 -0.2941 -0.9543 -0.4240
    6PVA    H29  899   5.569   1.658   4.676 -2.0920 -0.8884  0.0730
    6PVA    H30  900   5.579   1.485   4.622  2.9167 -0.7518 -2.9685
    6PVA    C16  901   5.400   1.594   4.592  0.7735 -0.1870 -0.6081
    6PVA    H31  902   5.366   1.519   4.519  2.3967 -1.8179  0.2215
    6PVA    H32  903   5.370   1.695   4.561  2.7973  0.0793 -1.9246
    6PVA    C17  904   5.340   1.582   4.731 -0.2946  0.8679 -0.3709
    6PVA    H33  905   5.372   1.664   4.797  1.0406 -0.6981  1.0013
    6PVA     O6  906   5.376   1.441   4.779 -1.1749 -0.7340 -0.8389
    6PVA    H34  907   5.290   1.396   4.768 -3.1904  2.4960  0.0896
    6PVA    C18  908   5.186   1.608   4.733 -0.1754 -0.2327 -0.3911
    6PVA    H35  909   5.161   1.673   4.649 -0.2290 -1.0931 -1.0576
    6PVA    H36  910   5.131   1.520   4.698 -2.5245  1.3875 -1.0165
    6PVA    C19  911   5.103   1.652   4.860  0.6736 -0.1683 -0.2204
    6PVA    H37  912   5.118   1.759   4.876 -1.5817 -0.2360  3.1737
    6PVA    H38  913   5.141   1.589   4.941  1.0013 -0.8132 -0.8612
    6PVA    C20  914   4.952   1.638   4.836  0.0117  0.0222  0.1985
    6PVA    H39  915   4.946   1.649   4.727 -3.9447  2.8527  0.4775
    6PVA     O7  916   4.899   1.512   4.874  0.2740  0.5950  0.2329
    6PVA    H40  917   4.830   1.498   4.807  1.8355  4.5897 -2.5933
    6PVA    C21  918   4.862   1.734   4.908  0.9157 -0.3354 -0.9747
    6PVA    H41  919   4.932   1.816   4.926  0.4029 -0.3535  1.3994
    6PVA    H42  920   4.832   1.698   5.007 -0.0287 -0.5362 -1.3184
    6PVA    C22  921   4.746   1.792   4.825  0.4713  0.2243 -0.2725
    6PVA    H43  922   4.688   1.858   4.891 -1.8588 -3.5038  1.7592
    6PVA    H44  923   4.784   1.859   4.747  6.2717 -2.1104  0.0459
    6PVA    C23  924   4.640   1.695   4.759 -0.5656  0.2179  0.6034
    6PVA    H45  925   4.638   1.603   4.820  4.7681 -0.2672  0.5050
    6PVA     O8  926   4.512   1.754   4.769 -0.3637  0.5093  0.1277
    6PVA    H46  927   4.509   1.848   4.795  0.7378  1.1289 -1.7754
    6PVA    C24  928   4.673   1.653   4.609  0.8932  0.4127  0.3083
    6PVA    H47  929   4.654   1.745   4.553 -3.0375 -0.7592 -0.5992
    6PVA    H48  930   4.780   1.629   4.600  1.9934  3.6112  2.8206
    6PVA    C25  931   4.585   1.545   4.538  0.0835  0.6010  0.1286
    6PVA    H49  932   4.595   1.547   4.428 -0.5664  0.4039  0.0615
    6PVA    H50  933   4.486   1.585   4.560  0.8815  0.8318  3.9549
    6PVA    C26  934   4.573   1.395   4.594 -0.5330 -0.6875  0.1525
    6PVA    H51  935   4.491   1.404   4.666 -1.4499  4.9595 -1.1018
    6PVA     O9  936   4.680   1.361   4.686 -0.2788  0.3615  0.0704
    6PVA    H52  937   4.636   1.333   4.768  0.9725  1.2915  1.1046
    6PVA    C27  938   4.547   1.293   4.484 -0.5066 -0.0733 -0.4640
    6PVA    H53  939   4.610   1.298   4.394  0.3087 -2.3868 -0.0970
    6PVA    H54  940   4.449   1.322   4.445  0.7957  1.9935 -2.4735
    6PVA    C28  941   4.561   1.147   4.548 -0.6453  0.0166  0.9376
    6PVA    H55  942   4.666   1.132   4.576  0.1064  1.0163 -1.0771
    6PVA    H56  943   4.493   1.119   4.629 -1.5427 -0.4270  0.0589
    6PVA    C29  944   4.548   1.040   4.426 -0.3233  0.0963 -0.6992
    6PVA    H57  945   4.613   1.064   4.341  4.0552 -2.6172  1.5208
    6PVA    O10  946   4.423   1.021   4.374 -0.7571 -0.2662 -0.9558
    6PVA    H58  947   4.443   1.027   4.279  2.0714 -2.0172 -0.5978
    6PVA    C30  948   4.587   0.900   4.480 -0.1161 -0.3459  0.5152
    6PVA    H59  949   4.616   0.916   4.585  2.3197  0.9713 -0.2778
    6PVA    H60  950   4.505   0.828   4.471  1.4972 -2.5613  2.3270
    6PVA    C31  951   4.720   0.846   4.414  0.7612 -0.1954 -0.0583
    6PVA    H61  952   4.802   0.918   4.420  1.4899 -1.0007 -0.2668
    6PVA    H62  953   4.694   0.828   4.309  0.3729  1.0836 -0.2043
    6PVA    C32  954   4.777   0.712   4.461  0.3955  0.0263 -0.6307
    6PVA    H63  955   4.764   0.730   4.568  2.7099  1.6024 -0.5462
    6PVA    O11  956   4.710   0.599   4.400  0.0132 -0.1195  1.0325
    6PVA    H64  957   4.752   0.572   4.317  0.4146 -1.1599  1.5567
    6PVA    C33  958   4.937   0.694   4.463 -0.3866  0.4168 -0.1283
    6PVA    H65  959   4.958   0.639   4.556 -2.1979 -0.6857 -0.3259
    6PVA    H66  960   4.976   0.796   4.476  0.0965  0.0652  1.4483
    6PVA    C34  961   5.002   0.617   4.353  0.1398  0.4154 -0.0069
    6PVA    H67  962   4.974   0.515   4.382 -1.4133  0.3557 -1.5476
    6PVA    H68  963   4.951   0.635   4.257 -1.2173 -1.4997  0.2809
    6PVA    C35  964   5.158   0.619   4.335  0.9623  0.6413 -0.4529
    6PVA    H69  965   5.199   0.520   4.358  3.2294  1.6175  0.0556
    6PVA    O12  966   5.212   0.714   4.436 -0.0773  0.4656  0.8460
    6PVA    H70  967   5.233   0.663   4.517 -1.5053 -1.5950  0.0008
    6PVA    C36  968   5.191   0.646   4.177 -0.0659 -0.7588 -0.4044
    6PVA    H71  969   5.159   0.552   4.132 -1.8116 -0.3175 -0.1661
    6PVA    H72  970   5.111   0.717   4.150 -0.3601 -1.0410 -0.2856
    6PVA    C37  971   5.331   0.707   4.138  0.6567 -0.3315 -0.0710
    6PVA    H73  972   5.399   0.643   4.195 -1.6234 -1.9970  0.9431
    6PVA    H74  973   5.331   0.812   4.170 -3.4885 -0.3251  0.5196
    6PVA    C38  974   5.379   0.684   3.993 -0.7502  0.1268  0.0963
    6PVA    H75  975   5.310   0.610   3.951  1.4442 -0.4348 -2.7796
    6PVA    O13  976   5.361   0.798   3.911 -0.2753 -0.5769  0.6052
    6PVA    H76  977   5.444   0.849   3.916 -0.4404  0.1298 -2.3006
    6PVA    C39  978   5.522   0.624   3.990  0.7695 -1.1166  0.1110
    6PVA    H77  979   5.534   0.551   4.071  1.1202  2.0395  3.1333
    6PVA    H78  980   5.594   0.706   3.997 -2.0568  2.1141 -3.9381
    6PVA    C40  981   5.560   0.555   3.855  1.7066  0.1392 -1.7339
    6PVA    H79  982   5.557   0.643   3.789 -4.4959  1.1269 -0.7300
    6PVA    H80  983   5.487   0.483   3.817  1.5950  0.4151 -2.0430
    6PVA    C41  984   5.705   0.506   3.865  0.5075  0.5452  0.0916
    6PVA    H81  985   5.764   0.587   3.909  3.7303 -1.9410  0.7184
    6PVA    O14  986   5.749   0.488   3.733 -0.0564  0.7894 -1.0922
    6PVA    H82  987   5.680   0.450   3.675 -0.6504  1.2749 -0.7167
    6PVA    C42  988   5.735   0.372   3.942 -0.4939  0.5028  0.6659
    6PVA    H83  989   5.702   0.402   4.042 -4.5452  1.2197 -0.6861
    6PVA    H84  990   5.677   0.286   3.906  1.9720 -1.6037  1.4175
    6PVA    C43  991   5.884   0.308   3.946  0.1282  0.0794 -0.0984
    6PVA    H85  992   5.941   0.396   3.978  3.5793 -3.4559  4.9949
    6PVA    H86  993   5.923   0.274   3.850  0.1282  1.3017 -0.5482
    6PVA    C44  994   5.913   0.204   4.066  0.6327  1.2522 -1.1421
    6PVA    H87  995   6.021   0.189   4.073  0.8018  2.8039  0.0664
    6PVA    O15  996   5.875   0.256   4.187  0.2038 -0.6157 -0.2754
    6PVA    H88  997   5.850   0.347   4.163  0.8006 -1.3443 -4.4399
    6PVA    C45  998   5.836   0.065   4.064  0.0477  0.5673 -0.0870
    6PVA    H89  999   5.824   0.042   3.958  2.8181  2.5405 -0.9485
    6PVA    H90 1000   5.738   0.083   4.110 -0.2998  0.0918 -0.6209
    6PVA    C46 1001   5.902   7.633   4.149  0.6731 -0.4486 -0.4215
    6PVA    H91 1002   6.005   7.626   4.111  0.5666 -1.4310 -0.5384
    6PVA    H92 1003   5.912   7.669   4.252 -1.5573 -1.0876  0.0597
    6PVA    C47 1004   5.836   7.483   4.150 -0.8770 -0.3711 -0.7851
    6PVA    H93 1005   5.911   7.405   4.165 -2.1748 -1.0871  2.6216
    6PVA    O16 1006   5.735   7.479   4.249 -0.6864  0.6583 -0.2532
    6PVA    H94 1007   5.692   7.563   4.228 -0.7667 -0.1283 -3.9183
    6PVA    C48 1008   5.772   7.454   4.004 -0.0546  0.3283 -1.1049
    6PVA    H95 1009   5.691   7.526   3.989  0.2089  0.7108 -0.6816
    6PVA    H96 1010   5.852   7.457   3.928 -0.2915 -1.4967 -1.4751
    6PVA    C49 1011   5.693   7.318   4.003  0.1045  0.2723  0.0540
    6PVA    H97 1012   5.614   7.333   4.077  2.4651 -2.1243  3.3139
    6PVA    H98 1013   5.765   7.244   4.040 -0.0924  1.7840  3.8921
    6PVA    C50 1014   5.634   7.261   3.872  0.5236  0.3786  0.9530
    6PVA    H99 1015   5.694   7.172   3.846  0.1695  0.5770 -0.6867
    6PVA    O17 1016   5.509   7.209   3.901  0.0016  1.1873 -0.7681
    6PVA   H100 1017   5.487   7.166   3.817 -3.8451 -4.7023  2.4871
    6PVA    C51 1018   5.629   7.338   3.741 -0.1429 -0.1457 -0.2903
    6PVA   H101 1019   5.728   7.376   3.712  2.2309 -3.7325  2.1938
    6PVA   H102 1020   5.564   7.422   3.765  0.7154 -0.5570  4.4643
    7PVA     C1 1021   6.298   1.104   4.916 -1.7941 -0.1896 -1.5841
    7PVA     H1 1022   6.248   1.189   4.963  3.3610  3.4873 -1.9868
    7PVA     H2 1023   6.374   1.096   4.994 -2.0020 -0.5601 -1.4161
    7PVA     C2 1024   6.218   0.971   4.926  0.3728  0.6694  0.4245
    7PVA     H3 1025   6.117   1.006   4.951  0.6840  0.8287  1.5026
    7PVA     O1 1026   6.227   0.912   4.797 -0.1973 -0.2329 -0.6012
    7PVA     H4 1027   6.282   0.978   4.753 -1.4097  2.7672  1.9580
    7PVA     C3 1028   6.269   0.884   5.041 -0.1165  0.8097  0.2363
    7PVA     H5 1029   6.245   0.932   5.137 -0.1035  0.1536  0.5665
    7PVA     H6 1030   6.376   0.863   5.028 -0.0169  0.9157  0.8927
    7PVA     C4 1031   6.203   0.748   5.063 -0.8244 -0.9119 -0.7075
    7PVA     H7 1032   6.096   0.767   5.078 -1.3664 -2.2041 -2.6596
    7PVA     H8 1033   6.200   0.702   4.964 -1.3739 -1.3684 -0.4822
    7PVA     C5 1034   6.256   0.675   5.188  0.5762 -0.1762 -0.5934
    7PVA     H9 1035   6.201   0.581   5.193 -0.1252  0.2207 -0.7126
    7PVA     O2 1036   6.382   0.621   5.178  0.4618  0.6778 -0.2653
    7PVA    H10 1037   6.366   0.558   5.105 -3.9209  3.5849 -2.2669
    7PVA     C6 1038   6.236   0.736   5.333 -0.9847 -0.6419 -0.1136
    7PVA    H11 1039   6.298   0.677   5.400 -1.4165 -1.3641 -0.3357
    7PVA    H12 1040   6.259   0.843   5.344  0.3448 -1.1612  3.2572
    7PVA     C7 1041   6.098   0.720   5.381  0.0665 -0.2601  0.1257
    7PVA    H13 1042   6.078   0.616   5.409  2.1615 -0.5201  0.8785
    7PVA    H14 1043   6.027   0.777   5.319  3.2976  4.5358  0.2402
    7PVA     C8 1044   6.085   0.794   5.518 -0.4898  1.1548  1.8052
    7PVA    H15 1045   6.144   0.739   5.591  0.7372 -0.2489 -0.1651
    7PVA     O3 1046   6.136   0.921   5.519  0.4946 -0.4842 -0.9563
    7PVA    H16 1047   6.213   0.929   5.460  0.2506  0.5813 -1.1553
    7PVA     C9 1048   5.936   0.801   5.565 -0.9906  0.7717 -0.3038
    7PVA    H17 1049   5.909   0.696   5.552  3.8272 -0.8447  0.5682
    7PVA    H18 1050   5.878   0.856   5.489  2.2416  0.8246 -2.9885
    7PVA    C10 1051   5.922   0.820   5.721  0.0336 -0.8149 -0.7302
    7PVA    H19 1052   6.010   0.777   5.771 -0.3172  0.3212  0.9681
    7PVA    H20 1053   5.918   0.929   5.735  0.6027 -1.0643  1.8607
    7PVA    C11 1054   5.802   0.754   5.778 -0.8166 -0.2898  0.3857
    7PVA    H21 1055   5.802   0.807   5.874  4.0009  0.9121 -0.0466
    7PVA     O4 1056   5.685   0.766   5.691  0.4292 -1.0224  0.1221
    7PVA    H22 1057   5.613   0.707   5.718 -2.0573  0.0094 -3.4398
    7PVA    C12 1058   5.812   0.601   5.801  0.3739  0.1999  0.0969
    7PVA    H23 1059   5.713   0.556   5.820  1.5338 -2.7631 -0.4852
    7PVA    H24 1060   5.856   0.557   5.711  2.4495  3.9957 -0.9543
    7PVA    C13 1061   5.895   0.570   5.922 -0.1505 -0.1577 -0.3456
    7PVA    H25 1062   5.855   0.633   6.003  2.0777  1.3371 -0.2937
    7PVA    H26 1063   5.999   0.606   5.912  0.0864 -1.0334 -1.1397
    7PVA    C14 1064   5.897   0.430   5.962 -1.0826 -0.1636 -0.4090
    7PVA    H27 1065   5.901   0.365   5.874  1.4996  2.1664 -2.1459
    7PVA     O5 1066   5.767   0.416   6.032 -0.9743 -0.6344 -0.6788
    7PVA    H28 1067   5.711   0.368   5.968 -0.9034 -2.2945  0.4504
    7PVA    C15 1068   6.013   0.399   6.053  0.7077  1.1273  0.6583
    7PVA    H29 1069   5.998   0.440   6.153 -2.0295  2.0723 -0.0731
    7PVA    H30 1070   6.107   0.436   6.009  2.7144 -4.6677 -0.8788
    7PVA    C16 1071   6.017   0.247   6.076 -1.0917  0.4209 -0.2421
    7PVA    H31 1072   5.944   0.197   6.141  1.2623 -0.5680  1.7957
    7PVA    H32 1073   6.004   0.218   5.971  1.0480 -0.5460 -0.3081
    7PVA    C17 1074   6.158   0.194   6.099 -0.0480 -0.4770 -1.1518
    7PVA    H33 1075   6.230   0.268   6.061  2.4028 -3.2358 -2.3639
    7PVA     O6 1076   6.175   0.180   6.235 -0.3237 -0.0999  0.6449
    7PVA    H34 1077   6.094   0.151   6.281 -0.1116 -0.1215  1.0009
    7PVA    C18 1078   6.178   0.046   6.045  1.0559  0.0360  0.5450
    7PVA    H35 1079   6.111   7.673   6.110 -2.3994 -0.4930 -3.0636
    7PVA    H36 1080   6.129   0.033   5.948  1.8389 -2.5896  0.4350
    7PVA    C19 1081   6.322   0.001   6.009  0.1613  0.3433 -0.0136
    7PVA    H37 1082   6.391   0.056   6.075  1.5732 -2.0899  0.6613
    7PVA    H38 1083   6.332   0.048   5.910 -2.5698  2.0688  0.4364
    7PVA    C20 1084   6.359   7.535   6.008  0.9336  0.1254 -0.0806
    7PVA    H39 1085   6.278   7.463   6.024  1.6271  0.0665  4.7676
    7PVA     O7 1086   6.396   7.518   5.873 -0.3660  0.3637 -0.1925
    7PVA    H40 1087   6.348   7.443   5.834  1.0148  0.5514 -2.4313
    7PVA    C21 1088   6.471   7.517   6.104  0.7375  0.8405  0.0595
    7PVA    H41 1089   6.547   7.580   6.056 -0.2311  1.9805 -0.0179
    7PVA    H42 1090   6.513   7.416   6.097  2.3730  1.5625 -5.4816
    7PVA    C22 1091   6.428   7.551   6.257  1.0901  0.0251  0.7269
    7PVA    H43 1092   6.353   7.630   6.252  1.3818  0.3213  0.9783
    7PVA    H44 1093   6.396   7.462   6.312 -2.6655 -0.6659 -2.1736
    7PVA    C23 1094   6.542   7.598   6.343 -0.1522 -0.3171  0.2946
    7PVA    H45 1095   6.630   7.533   6.355  1.6979  2.0084  0.1144
    7PVA     O8 1096   6.599   0.020   6.271 -0.0205 -0.7311 -0.5146
    7PVA    H46 1097   6.540   0.096   6.258  2.1270  1.5041  1.8735
    7PVA    C24 1098   6.500   7.633   6.485 -0.4319  0.1969  0.8377
    7PVA    H47 1099   6.479   7.531   6.520  0.4189 -0.7576 -1.2534
    7PVA    H48 1100   6.597   7.657   6.530 -0.5772 -0.3818  1.4640
    7PVA    C25 1101   6.395   0.057   6.513  0.1822 -0.6508 -0.0633
    7PVA    H49 1102   6.369   0.039   6.617 -1.8487  1.6725 -0.0553
    7PVA    H50 1103   6.305   0.035   6.453 -0.8147 -2.2539  1.8887
    7PVA    C26 1104   6.443   0.203   6.503  0.6303 -0.0776  0.2986
    7PVA    H51 1105   6.545   0.215   6.543  1.6233 -4.3631 -0.4546
    7PVA     O9 1106   6.444   0.238   6.361 -1.0066 -0.0494  0.4618
    7PVA    H52 1107   6.354   0.262   6.332 -0.3757 -0.5378 -2.1491
    7PVA    C27 1108   6.343   0.297   6.579  0.5099 -0.5654 -0.0449
    7PVA    H53 1109   6.327   0.267   6.684  1.1392 -2.9939 -0.5854
    7PVA    H54 1110   6.242   0.275   6.541  0.1512  1.4000 -0.3245
    7PVA    C28 1111   6.394   0.455   6.568  0.5923  0.8041 -0.1897
    7PVA    H55 1112   6.385   0.463   6.459  1.2739  0.4147 -0.2821
    7PVA    H56 1113   6.503   0.456   6.586  0.3988 -3.0156  2.2751
    7PVA    C29 1114   6.318   0.568   6.637  0.5189 -1.0407 -0.2079
    7PVA    H57 1115   6.240   0.604   6.569 -2.0461 -0.4619  2.8011
    7PVA    O10 1116   6.264   0.523   6.765 -0.1441  0.9417 -0.3861
    7PVA    H58 1117   6.314   0.577   6.828 -1.1618  0.6965  0.6775
    7PVA    C30 1118   6.404   0.689   6.669 -0.3553  0.8648 -1.0896
    7PVA    H59 1119   6.453   0.671   6.765 -0.1582  1.5997 -1.0452
    7PVA    H60 1120   6.491   0.711   6.606 -0.6828  3.0161 -0.8577
    7PVA    C31 1121   6.323   0.823   6.696  0.0516 -0.9023  0.4007
    7PVA    H61 1122   6.228   0.796   6.744  0.2316  0.1580  1.4032
    7PVA    H62 1123   6.285   0.874   6.607 -2.0570 -2.3775  0.3716
    7PVA    C32 1124   6.377   0.938   6.787  0.0821 -0.2995  0.3008
    7PVA    H63 1125   6.396   0.885   6.881 -1.7357 -1.7625 -0.0902
    7PVA    O11 1126   6.508   0.988   6.747 -0.6482  0.9067  0.1689
    7PVA    H64 1127   6.574   0.954   6.810  1.8302  2.0420 -1.6409
    7PVA    C33 1128   6.278   1.045   6.817 -0.8137 -1.5475 -0.8772
    7PVA    H65 1129   6.211   1.069   6.734 -2.9943 -5.9785 -0.7076
    7PVA    H66 1130   6.210   1.008   6.895  1.7379  2.3320  3.7678
    7PVA    C34 1131   6.346   1.164   6.894  0.0451 -1.7293 -0.5704
    7PVA    H67 1132   6.421   1.139   6.970  1.3492  5.5165  1.2637
    7PVA    H68 1133   6.408   1.225   6.827  0.4181  0.6784  1.8194
    7PVA    C35 1134   6.244   1.264   6.963 -1.7500  0.1579 -0.8902
    7PVA    H69 1135   6.293   1.360   6.945 -3.3718  0.4529 -4.8204
    7PVA    O12 1136   6.136   1.272   6.878  0.3688  0.0290  0.7054
    7PVA    H70 1137   6.166   1.281   6.786  1.8691 -1.5350  0.9969
    7PVA    C36 1138   6.216   1.235   7.114 -0.1642  0.4226  0.3168
    7PVA    H71 1139   6.231   1.128   7.134 -2.7626  0.0128  0.4279
    7PVA    H72 1140   6.302   1.279   7.165  2.3995 -2.2166 -1.4109
    7PVA    C37 1141   6.086   1.304   7.163  0.5404  0.9308 -0.1362
    7PVA    H73 1142   6.013   1.257   7.097  0.1596 -1.3060  1.7252
    7PVA    H74 1143   6.087   1.410   7.137 -2.8462  0.8817 -0.7953
    7PVA    C38 1144   6.044   1.289   7.314  0.0460  0.8694 -1.3492
    7PVA    H75 1145   5.954   1.350   7.306 -0.5274 -0.1141 -2.7391
    7PVA    O13 1146   6.135   1.366   7.397  0.1380 -0.7125  0.5383
    7PVA    H76 1147   6.108   1.458   7.378 -7.1676 -2.5723 -1.4818
    7PVA    C39 1148   6.029   1.151   7.365 -0.2055 -0.6832  0.0474
    7PVA    H77 1149   6.108   1.087   7.323  1.5531  1.0544  0.5394
    7PVA    H78 1150   6.068   1.155   7.467  0.9995  0.1893 -0.4215
    7PVA    C40 1151   5.882   1.109   7.338 -0.0947  0.1707 -1.0807
    7PVA    H79 1152   5.857   1.144   7.237 -1.9216  0.3923 -0.5959
    7PVA    H80 1153   5.814   1.154   7.412  1.3325 -1.7634  1.5701
    7PVA    C41 1154   5.866   0.949   7.347 -0.6706  0.5413  0.2597
    7PVA    H81 1155   5.949   0.912   7.409 -2.7991 -1.7112  1.9909
    7PVA    O14 1156   5.745   0.910   7.421 -0.3605  0.0638 -0.4603
    7PVA    H82 1157   5.746   0.932   7.516 -2.1465  3.1663 -1.0311
    7PVA    C42 1158   5.871   0.861   7.210 -0.6101  0.0043 -0.3438
    7PVA    H83 1159   5.894   0.761   7.250  0.2664  0.4192  0.2398
    7PVA    H84 1160   5.783   0.836   7.149 -1.1050  1.9485 -0.4827
    7PVA    C43 1161   5.993   0.895   7.121  0.1800  0.1314 -1.6666
    7PVA    H85 1162   6.092   0.864   7.158 -0.8404 -2.3785 -0.8452
    7PVA    H86 1163   5.983   1.001   7.094 -1.2927  0.3215 -0.4943
    7PVA    C44 1164   5.995   0.826   6.985 -1.3269  0.9326  0.0410
    7PVA    H87 1165   6.055   0.886   6.915 -0.9021  2.0246  1.3011
    7PVA    O15 1166   6.037   0.687   7.009 -0.3395  0.8599  0.9831
    7PVA    H88 1167   5.990   0.639   6.939  2.8892 -1.3738  0.0788
    7PVA    C45 1168   5.871   0.817   6.899 -0.1546  0.3279  0.6581
    7PVA    H89 1169   5.901   0.765   6.807  1.7988 -1.7182  2.3256
    7PVA    H90 1170   5.804   0.741   6.941 -0.5877  0.8419  0.9180
    7PVA    C46 1171   5.794   0.941   6.855 -0.5863 -0.7813 -0.5239
    7PVA    H91 1172   5.708   0.902   6.799  1.6934 -0.7315 -4.4737
    7PVA    H92 1173   5.765   1.010   6.935 -0.4566  0.1801 -1.2930
    7PVA    C47 1174   5.869   1.036   6.762 -0.6681  0.9424  0.3833
    7PVA    H93 1175   5.961   1.062   6.817 -0.5990  0.7484  0.3608
    7PVA    O16 1176   5.904   0.972   6.638  0.2829  0.4341 -0.2740
    7PVA    H94 1177   5.855   0.893   6.609  0.0850 -0.3215  1.9307
    7PVA    C48 1178   5.780   1.165   6.718 -0.5924 -0.1234  0.1613
    7PVA    H95 1179   5.694   1.117   6.668  0.2163 -1.0434 -0.3674
    7PVA    H96 1180   5.857   1.212   6.655  0.4292  0.6462  1.9121
    7PVA    C49 1181   5.730   1.267   6.824  0.6924  0.4922 -0.2964
    7PVA    H97 1182   5.712   1.354   6.760 -3.7302 -0.3744 -0.5475
    7PVA    H98 1183   5.804   1.293   6.901 -1.2194  2.9456  0.8587
    7PVA    C50 1184   5.587   1.250   6.882  0.1273  0.1278 -1.2276
    7PVA    H99 1185   5.580   1.141   6.894  1.2931  0.2956  2.4009
    7PVA    O17 1186   5.497   1.311   6.785  0.7005  0.3143  0.2880
    7PVA   H100 1187   5.427   1.363   6.826  0.5544 -1.0660  1.9148
    7PVA    C51 1188   5.574   1.287   7.034 -0.7798  1.3226  0.7229
    7PVA   H101 1189   5.479   1.333   7.064 -2.2927 -1.1161  0.0314
    7PVA   H102 1190   5.643   1.369   7.058  1.7522  0.1768 -2.0466
    8PVA     C1 1191   3.142   4.372   0.341  1.3499 -0.3472 -0.7218
    8PVA     H1 1192   3.200   4.330   0.258  2.3358  1.7068 -1.1500
    8PVA     H2 1193   3.157   4.481   0.349 -0.8384  0.2639 -3.2705
    8PVA     C2 1194   3.201   4.272   0.453 -0.3124  0.2259  1.3604
    8PVA     H3 1195   3.163   4.176   0.417 -2.3479  0.7922  1.8417
    8PVA     O1 1196   3.129   4.309   0.567 -0.1906 -0.1553  0.3850
    8PVA     H4 1197   3.034   4.291   0.575 -0.2449  0.0715  0.2488
    8PVA     C3 1198   3.347   4.268   0.501 -0.5572  0.4966 -0.0708
    8PVA     H5 1199   3.364   4.334   0.587  3.9159  0.7780 -0.9292
    8PVA     H6 1200   3.399   4.331   0.428 -1.4024  0.6904 -0.5293
    8PVA     C4 1201   3.402   4.130   0.523 -0.5485 -0.2392  0.7061
    8PVA     H7 1202   3.382   4.084   0.621 -2.1224 -1.7842 -0.2808
    8PVA     H8 1203   3.349   4.075   0.445  0.3031 -2.3627  1.5463
    8PVA     C5 1204   3.556   4.104   0.494 -0.7293 -1.0314  0.1476
    8PVA     H9 1205   3.576   4.102   0.386 -1.8712 -3.1575 -0.0799
    8PVA     O2 1206   3.632   4.200   0.567 -1.4581 -0.2469  0.4133
    8PVA    H10 1207   3.622   4.168   0.658  1.3303  2.8200  2.0308
    8PVA     C6 1208   3.596   3.960   0.538 -1.1364 -0.2185 -0.7262
    8PVA    H11 1209   3.534   3.886   0.486 -1.4999  1.8556 -3.5438
    8PVA    H12 1210   3.589   3.954   0.647  4.9972 -1.4111 -0.0474
    8PVA     C7 1211   3.752   3.923   0.522  0.9291  0.2909  0.0526
    8PVA    H13 1212   3.778   3.949   0.418  1.0726 -5.1643 -1.5760
    8PVA    H14 1213   3.816   3.979   0.591 -1.0972 -0.4606  2.7186
    8PVA     C8 1214   3.787   3.774   0.527 -0.5089  0.2694 -0.6930
    8PVA    H15 1215   3.754   3.730   0.432 -0.1087  1.1720 -1.2594
    8PVA     O3 1216   3.723   3.715   0.637 -0.1472 -0.4400 -0.3962
    8PVA    H16 1217   3.649   3.767   0.672  2.3456  1.8286  1.9631
    8PVA     C9 1218   3.948   3.743   0.522 -0.0177 -0.8431 -0.4202
    8PVA    H17 1219   4.003   3.837   0.511 -3.0351  1.2597  0.7623
    8PVA    H18 1220   3.971   3.711   0.420  3.1862  0.2773 -0.1508
    8PVA    C10 1221   4.018   3.632   0.620 -0.1746 -0.9748 -0.2948
    8PVA    H19 1222   4.003   3.656   0.725 -1.3744 -2.9663  0.0437
    8PVA    H20 1223   3.967   3.536   0.605 -1.2533 -0.3832 -0.5211
    8PVA    C11 1224   4.167   3.612   0.627  0.5037 -0.3569  1.2407
    8PVA    H21 1225   4.192   3.598   0.522  1.5889 -0.4205  1.5005
    8PVA     O4 1226   4.227   3.736   0.677 -0.2018  0.3969 -1.3411
    8PVA    H22 1227   4.323   3.728   0.688 -0.3968  1.0804  1.7207
    8PVA    C12 1228   4.206   3.481   0.704 -0.1305 -0.6639 -0.5576
    8PVA    H23 1229   4.147   3.466   0.796 -3.0082 -0.9764 -2.3373
    8PVA    H24 1230   4.195   3.395   0.636  4.5814  1.6865 -4.8847
    8PVA    C13 1231   4.356   3.471   0.737  0.3692  0.2549 -0.4446
    8PVA    H25 1232   4.390   3.561   0.788 -0.0295  1.5606 -2.3640
    8PVA    H26 1233   4.409   3.450   0.643 -0.2421 -1.3679 -0.4626
    8PVA    C14 1234   4.380   3.350   0.830 -1.4784  0.1260 -0.7761
    8PVA    H27 1235   4.293   3.355   0.897 -2.1929 -0.0633 -1.6581
    8PVA     O5 1236   4.372   3.231   0.753  0.3000 -0.7519 -1.3962
    8PVA    H28 1237   4.418   3.239   0.667  2.9602 -0.6123 -0.0530
    8PVA    C15 1238   4.509   3.356   0.919  0.3150 -0.4908  1.5016
    8PVA    H29 1239   4.576   3.296   0.855 -1.9425  1.0389 -2.6696
    8PVA    H30 1240   4.558   3.454   0.928  0.1878 -0.0356 -1.5900
    8PVA    C16 1241   4.473   3.277   1.046 -0.9996  0.0973 -0.1768
    8PVA    H31 1242   4.391   3.321   1.103 -2.4143  0.0570 -2.0736
    8PVA    H32 1243   4.428   3.182   1.015  0.4812 -1.6539  2.6237
    8PVA    C17 1244   4.580   3.234   1.149 -0.5923  1.4205  0.9581
    8PVA    H33 1245   4.646   3.174   1.086 -2.4739 -0.7891  0.9592
    8PVA     O6 1246   4.635   3.347   1.211  0.1425 -0.3212 -0.8784
    8PVA    H34 1247   4.652   3.411   1.139  0.3410  2.0109  1.1104
    8PVA    C18 1248   4.517   3.137   1.260 -0.2538 -0.9622  0.6508
    8PVA    H35 1249   4.422   3.181   1.294  0.5450  0.2277  1.3931
    8PVA    H36 1250   4.484   3.044   1.211 -3.6343  0.1105  0.6144
    8PVA    C19 1251   4.593   3.114   1.393  0.7489  0.1967  0.4107
    8PVA    H37 1252   4.606   3.199   1.460 -1.2119  0.1831  0.8740
    8PVA    H38 1253   4.693   3.117   1.349  1.2806  0.4850  1.5992
    8PVA    C20 1254   4.552   2.988   1.468  0.8596  0.3628  1.3455
    8PVA    H39 1255   4.562   2.909   1.392 -2.7561  1.1145 -0.0977
    8PVA     O7 1256   4.418   2.976   1.508 -0.2170  0.2724 -0.1955
    8PVA    H40 1257   4.418   2.922   1.588  1.5896  2.2376  1.2611
    8PVA    C21 1258   4.636   2.950   1.598  0.1751 -0.0026  0.2560
    8PVA    H41 1259   4.621   3.022   1.680 -0.8160 -0.9268  0.9129
    8PVA    H42 1260   4.743   2.950   1.573  0.8175  1.4004  2.6430
    8PVA    C22 1261   4.628   2.800   1.655  0.8095 -0.3317  0.8432
    8PVA    H43 1262   4.619   2.731   1.569  0.3154 -2.3724  2.4516
    8PVA    H44 1263   4.540   2.769   1.713 -2.5656 -1.5326 -4.2649
    8PVA    C23 1264   4.756   2.752   1.726 -0.8754  0.2995  0.2038
    8PVA    H45 1265   4.834   2.804   1.670 -0.8636  0.8171  0.6849
    8PVA     O8 1266   4.750   2.810   1.858 -0.3523 -0.7911 -0.4701
    8PVA    H46 1267   4.757   2.906   1.848 -2.1041 -0.8102 -2.9198
    8PVA    C24 1268   4.780   2.597   1.724 -0.2213 -0.3634 -0.1595
    8PVA    H47 1269   4.692   2.535   1.738 -0.2972 -1.8592 -5.1182
    8PVA    H48 1270   4.817   2.567   1.625 -0.4934 -1.8716  0.1780
    8PVA    C25 1271   4.873   2.543   1.831  0.3931  0.3238  0.9213
    8PVA    H49 1272   4.844   2.586   1.928  1.5940  3.1191  0.1748
    8PVA    H50 1273   4.972   2.589   1.817  1.0615 -1.1921  0.5160
    8PVA    C26 1274   4.871   2.388   1.848 -0.1141  0.6075  0.0098
    8PVA    H51 1275   4.768   2.364   1.876 -0.0482 -0.4559 -0.6065
    8PVA     O9 1276   4.910   2.333   1.724  0.4306 -0.3558 -0.5842
    8PVA    H52 1277   4.864   2.386   1.657 -0.7354 -2.2972 -1.4113
    8PVA    C27 1278   4.952   2.333   1.967 -0.7569 -0.7052 -0.2871
    8PVA    H53 1279   4.927   2.386   2.060 -0.1970 -1.6361  0.4101
    8PVA    H54 1280   5.051   2.368   1.936 -1.1941 -0.0806 -1.0384
    8PVA    C28 1281   4.926   2.188   2.008  0.4171 -0.0218  0.7810
    8PVA    H55 1282   4.819   2.206   2.028 -0.8955  1.8448 -5.5437
    8PVA    H56 1283   4.938   2.123   1.921  0.5659  1.4050 -0.3019
    8PVA    C29 1284   4.999   2.135   2.130  0.4472  0.3040  0.4555
    8PVA    H57 1285   5.106   2.125   2.109  0.3251  0.0790 -0.0996
    8PVA    O10 1286   4.980   2.232   2.233  0.1963  0.0391  1.4332
    8PVA    H58 1287   5.019   2.194   2.314 -1.1541 -1.6251  1.3679
    8PVA    C30 1288   4.964   2.000   2.195  1.1706  1.3579  0.7182
    8PVA    H59 1289   4.862   2.001   2.233  0.1548 -1.1745 -1.5797
    8PVA    H60 1290   4.945   1.938   2.106 -2.6383 -3.0924  4.1534
    8PVA    C31 1291   5.073   1.931   2.290  0.3021  0.5664 -0.5756
    8PVA    H61 1292   5.111   1.989   2.375 -0.2711 -0.7303  0.5972
    8PVA    H62 1293   5.159   1.908   2.227 -0.6947 -0.1547 -1.7201
    8PVA    C32 1294   5.029   1.802   2.369  0.6530  0.7107  0.2877
    8PVA    H63 1295   4.988   1.851   2.459  0.3952  0.3884  0.3487
    8PVA    O11 1296   4.925   1.735   2.294  0.8161  0.6936 -1.3929
    8PVA    H64 1297   4.837   1.755   2.330  0.7782  1.0673 -1.6865
    8PVA    C33 1298   5.154   1.721   2.430  1.4775  0.2298  0.3688
    8PVA    H65 1299   5.180   1.648   2.353  2.6765 -0.3009  1.2514
    8PVA    H66 1300   5.240   1.785   2.453  0.4953  1.9815 -0.5386
    8PVA    C34 1301   5.104   1.628   2.540  0.3892 -0.5849  0.3637
    8PVA    H67 1302   5.058   1.689   2.619  2.6147  1.4090  0.2405
    8PVA    H68 1303   5.019   1.565   2.511 -1.2211  1.5776  0.1426
    8PVA    C35 1304   5.208   1.533   2.606  0.1465  0.0405  0.1187
    8PVA    H69 1305   5.235   1.461   2.528  0.8694  2.0183 -1.5530
    8PVA    O12 1306   5.325   1.612   2.648  0.0975 -0.3485  0.9843
    8PVA    H70 1307   5.339   1.653   2.561  1.6221 -0.4531  1.1571
    8PVA    C36 1308   5.147   1.473   2.738  0.4011 -0.3639  0.6667
    8PVA    H71 1309   5.154   1.538   2.825  0.8934 -0.3946  0.6530
    8PVA    H72 1310   5.041   1.447   2.728 -0.0009  0.5846  2.2004
    8PVA    C37 1311   5.204   1.336   2.782 -0.8206  0.0619 -0.1205
    8PVA    H73 1312   5.313   1.345   2.791 -0.7319 -0.0477 -1.0286
    8PVA    H74 1313   5.179   1.269   2.699 -1.4347  2.7946 -2.2813
    8PVA    C38 1314   5.142   1.275   2.914 -0.9636 -0.0793  0.4683
    8PVA    H75 1315   5.037   1.249   2.896 -0.9458  0.1284  0.0627
    8PVA    O13 1316   5.140   1.374   3.011  0.3948 -0.5467  0.0980
    8PVA    H76 1317   5.224   1.407   3.048 -2.2431  0.9046  6.0645
    8PVA    C39 1318   5.219   1.152   2.978 -0.6583 -0.4536  0.4821
    8PVA    H77 1319   5.203   1.152   3.086 -0.3332  4.0569  0.7039
    8PVA    H78 1320   5.324   1.179   2.963 -0.7404 -0.8832 -1.1129
    8PVA    C40 1321   5.208   0.998   2.925  0.7588 -0.6132 -1.1467
    8PVA    H79 1322   5.127   0.949   2.980  1.2922 -0.5672 -0.3028
    8PVA    H80 1323   5.180   0.995   2.819 -2.9744  3.1743 -0.5544
    8PVA    C41 1324   5.327   0.917   2.944  0.5832  0.0733 -0.1159
    8PVA    H81 1325   5.401   0.973   2.885 -0.2780 -1.0801 -2.4542
    8PVA    O14 1326   5.363   0.918   3.080  0.6296 -1.3832  0.2122
    8PVA    H82 1327   5.416   0.837   3.089  2.1446 -1.0024 -3.5125
    8PVA    C42 1328   5.318   0.769   2.877 -0.3639  0.5380  0.7885
    8PVA    H83 1329   5.211   0.745   2.871 -0.4801  0.4192  2.8619
    8PVA    H84 1330   5.340   0.763   2.769 -2.6568 -1.9821  0.3611
    8PVA    C43 1331   5.384   0.635   2.946 -0.5857  0.5673  0.2826
    8PVA    H85 1332   5.329   0.625   3.040  0.3759  1.2413  0.9429
    8PVA    H86 1333   5.485   0.658   2.982  0.0656 -0.9566 -0.4948
    8PVA    C44 1334   5.385   0.507   2.869  0.5348  0.2388 -0.5682
    8PVA    H87 1335   5.283   0.504   2.828  0.7491 -1.8112 -1.0356
    8PVA    O15 1336   5.478   0.512   2.770 -0.5593  0.4252 -0.9385
    8PVA    H88 1337   5.466   0.433   2.714  2.6140  2.3000 -4.7750
    8PVA    C45 1338   5.402   0.383   2.969  0.1937  0.1796  0.9630
    8PVA    H89 1339   5.303   0.348   3.003  1.4784 -1.7614  2.9800
    8PVA    H90 1340   5.468   0.404   3.054 -0.1904  1.8247  0.8798
    8PVA    C46 1341   5.468   0.245   2.925 -0.2808 -0.5103  0.3938
    8PVA    H91 1342   5.576   0.266   2.924 -1.1137  5.3806  0.7475
    8PVA    H92 1343   5.440   0.210   2.825  1.1303 -0.6240  0.0193
    8PVA    C47 1344   5.430   0.130   3.015 -0.1576 -0.0406 -0.7586
    8PVA    H93 1345   5.328   0.093   2.999  0.4756 -1.7766 -1.0285
    8PVA    O16 1346   5.472   0.153   3.156 -0.1674 -0.3986  0.2274
    8PVA    H94 1347   5.498   0.066   3.192  1.5990 -1.5634 -3.3764
    8PVA    C48 1348   5.514   0.000   3.005  0.3096 -0.9041  1.2631
    8PVA    H95 1349   5.531   7.657   2.900  1.6785 -2.1600  1.7857
    8PVA    H96 1350   5.618   0.013   3.037  0.3843  0.1845  0.6374
    8PVA    C49 1351   5.462   7.552   3.068  0.9133 -0.2557 -0.7164
    8PVA    H97 1352   5.373   7.509   3.021 -1.6859  0.9038  2.7301
    8PVA    H98 1353   5.543   7.479   3.053  3.6087  0.5068  6.2311
    8PVA    C50 1354   5.449   7.554   3.230 -0.0862 -0.9791  0.1700
    8PVA    H99 1355   5.362   7.612   3.263  0.9563 -0.3075  1.9049
    8PVA    O17 1356   5.562   7.622   3.276 -0.1854 -0.5718 -0.0294
    8PVA   H100 1357   5.638   7.560   3.278  1.1001  0.9346 -0.3338
    8PVA    C51 1358   5.438   7.406   3.278  0.1462  0.1418 -0.5624
    8PVA   H101 1359   5.358   7.352   3.226 -0.0223  0.5020 -0.6821
    8PVA   H102 1360   5.530   7.357   3.245 -0.4848  0.1993 -2.4929
    9PVA     C1 1361   2.671   4.576   0.258 -0.8564 -0.5237  0.1288
    9PVA     H1 1362   2.611   4.506   0.318 -0.0171  0.6921  2.5475
    9PVA     H2 1363   2.628   4.595   0.159  1.3521  1.7687 -0.4777
    9PVA     C2 1364   2.666   4.720   0.329 -0.2419 -0.0759  0.1006
    9PVA     H3 1365   2.561   4.727   0.362 -1.1275 -3.5790 -1.5088
    9PVA     O1 1366   2.753   4.717   0.446  0.1739  0.1693 -0.7037
    9PVA     H4 1367   2.710   4.640   0.486 -1.7154  0.8268 -1.4040
    9PVA     C3 1368   2.697   4.844   0.233  0.4041  0.0473  0.4362
    9PVA     H5 1369   2.763   4.814   0.151 -0.0094 -0.0127  0.1221
    9PVA     H6 1370   2.749   4.922   0.292 -2.6278  1.7607  1.0556
    9PVA     C4 1371   2.576   4.906   0.147  0.0314  0.3119  1.5322
    9PVA     H7 1372   2.542   4.834   0.072 -1.3763  4.6549 -2.5010
    9PVA     H8 1373   2.490   4.917   0.213  1.1061  0.3387  2.9754
    9PVA     C5 1374   2.587   5.050   0.075  0.2196 -0.3576 -0.1732
    9PVA     H9 1375   2.658   5.048   8.089 -1.1094 -2.0788 -1.3226
    9PVA     O2 1376   2.657   5.136   0.160  0.5688  0.5575 -0.2805
    9PVA    H10 1377   2.740   5.088   0.181  0.4384  1.0341  1.4598
    9PVA     C6 1378   2.463   5.103   0.016 -0.2281  0.1222  0.2317
    9PVA    H11 1379   2.399   5.024   8.071 -3.3471  3.3747 -1.6932
    9PVA    H12 1380   2.414   5.135   0.108  1.2787 -1.4807  1.6628
    9PVA     C7 1381   2.470   5.233   8.036 -0.2099  0.3088 -0.1996
    9PVA    H13 1382   2.543   5.217   7.957 -1.9053  1.1999 -2.0261
    9PVA    H14 1383   2.524   5.309   8.094  0.5228 -0.1211 -0.3124
    9PVA     C8 1384   2.328   5.300   8.000 -0.2631  1.2326  0.2797
    9PVA    H15 1385   2.266   5.226   7.948 -2.2157 -0.4409  4.5623
    9PVA     O3 1386   2.257   5.309   0.033 -0.2325  0.1229  0.6018
    9PVA    H16 1387   2.177   5.259   0.010  0.9628 -0.7080 -2.1840
    9PVA     C9 1388   2.322   5.430   7.914 -1.5508  0.5180 -0.2596
    9PVA    H17 1389   2.343   5.396   7.812 -0.5867 -2.1192  0.7407
    9PVA    H18 1390   2.408   5.494   7.934 -0.1102 -0.8984 -1.6351
    9PVA    C10 1391   2.203   5.529   7.923  0.4022 -0.0337  1.5908
    9PVA    H19 1392   2.110   5.474   7.944 -3.0145  4.4568 -0.0030
    9PVA    H20 1393   2.208   5.602   8.005  3.3949  1.3837  0.2860
    9PVA    C11 1394   2.165   5.595   7.795  1.1261 -0.6808 -0.4203
    9PVA    H21 1395   2.259   5.622   7.745  0.1608  2.8835 -0.6145
    9PVA     O4 1396   2.084   5.508   7.712 -1.0250  0.1544 -0.0225
    9PVA    H22 1397   2.026   5.563   7.657 -3.0375 -4.2389 -2.8749
    9PVA    C12 1398   2.090   5.730   7.823  0.3451  0.3302  0.0569
    9PVA    H23 1399   2.078   5.729   7.932  2.0682  0.7512  0.2813
    9PVA    H24 1400   2.165   5.806   7.796 -1.0239  2.6983  2.4033
    9PVA    C13 1401   1.954   5.751   7.745 -1.1818 -0.9080  0.1563
    9PVA    H25 1402   1.871   5.685   7.772 -2.4499 -0.1350 -1.6564
    9PVA    H26 1403   1.975   5.756   7.637 -2.3456 -1.1625 -0.0949
    9PVA    C14 1404   1.909   5.900   7.786  0.0949  0.6974  1.0004
    9PVA    H27 1405   1.893   5.898   7.895 -0.3101 -2.9504  1.0119
    9PVA     O5 1406   1.996   6.003   7.750 -0.2548  0.3788 -1.5465
    9PVA    H28 1407   1.971   6.078   7.807  1.6104 -0.1805  0.1112
    9PVA    C15 1408   1.765   5.941   7.734 -0.1450 -0.5394  0.5893
    9PVA    H29 1409   1.704   5.865   7.684 -0.7053  0.2945 -0.0204
    9PVA    H30 1410   1.771   6.022   7.661 -0.1066  0.2422  1.4447
    9PVA    C16 1411   1.676   5.991   7.854  0.4875  0.5456  0.7732
    9PVA    H31 1412   1.664   5.911   7.928  0.5870 -2.3508 -2.1496
    9PVA    H32 1413   1.743   6.057   7.911 -1.0865  1.9538  1.0615
    9PVA    C17 1414   1.546   6.065   7.819  1.1425 -0.0503 -1.1286
    9PVA    H33 1415   1.553   6.151   7.751  1.6764  0.4282 -0.4828
    9PVA     O6 1416   1.449   5.969   7.747  1.2356 -0.4363  0.7902
    9PVA    H34 1417   1.472   5.957   7.654  1.2465 -4.1283  1.1184
    9PVA    C18 1418   1.469   6.113   7.956 -0.5857 -0.5066  0.0007
    9PVA    H35 1419   1.364   6.090   7.933  0.4149  0.1380 -8.1828
    9PVA    H36 1420   1.482   6.066   8.055  1.5269  3.2526  1.7385
    9PVA    C19 1421   1.454   6.270   7.981 -0.2896 -0.2160  0.3032
    9PVA    H37 1422   1.355   6.299   7.944  2.2758  5.3209 -3.5730
    9PVA    H38 1423   1.495   6.332   7.901 -1.7613  1.3250  0.6868
    9PVA    C20 1424   1.473   6.344   0.028 -0.1775 -0.0652 -0.4630
    9PVA    H39 1425   1.389   6.416   0.028 -0.2301 -0.1263 -0.8311
    9PVA     O7 1426   1.466   6.267   0.146 -0.6882  0.7129 -0.4792
    9PVA    H40 1427   1.440   6.310   0.229  1.4943 -2.0286  1.8351
    9PVA    C21 1428   1.591   6.436   0.043  0.9018  0.7942 -0.7681
    9PVA    H41 1429   1.554   6.524   8.085  0.5675  2.4474  1.8998
    9PVA    H42 1430   1.676   6.401   8.081 -1.8654 -7.5247 -1.1437
    9PVA    C22 1431   1.639   6.484   0.182  1.0362  0.6388  0.2096
    9PVA    H43 1432   1.562   6.535   0.242 -0.7510 -2.3725  0.6886
    9PVA    H44 1433   1.650   6.401   0.254  1.3087 -1.1379 -1.7912
    9PVA    C23 1434   1.765   6.569   0.175 -0.9431 -0.2818  0.5973
    9PVA    H45 1435   1.758   6.619   0.077 -1.1858 -2.1232 -0.3901
    9PVA     O8 1436   1.894   6.502   0.172  0.3459  0.8234 -0.0945
    9PVA    H46 1437   1.900   6.462   0.084 -4.1753  1.1627 -0.7576
    9PVA    C24 1438   1.768   6.678   0.281  0.2237 -0.7221  0.5169
    9PVA    H47 1439   1.667   6.698   0.320 -0.5392 -0.8923 -1.3055
    9PVA    H48 1440   1.819   6.638   0.370 -0.5802 -1.0375  0.8466
    9PVA    C25 1441   1.832   6.802   0.216 -0.7259 -0.1688  0.4705
    9PVA    H49 1442   1.862   6.784   0.112  0.5682 -0.2595  0.8379
    9PVA    H50 1443   1.930   6.820   0.263 -1.4616 -0.9094  2.3808
    9PVA    C26 1444   1.766   6.949   0.219  1.2331 -0.6723 -0.8422
    9PVA    H51 1445   1.662   6.929   0.190  1.3280  0.7262 -2.2453
    9PVA     O9 1446   1.768   6.995   0.353 -0.6522  0.6124  0.6115
    9PVA    H52 1447   1.864   6.993   0.366 -0.2122  5.4463 -0.0018
    9PVA    C27 1448   1.810   7.069   0.129 -0.9633 -0.6913  0.0537
    9PVA    H53 1449   1.717   7.109   0.088 -1.5515  0.3093  2.2115
    9PVA    H54 1450   1.855   7.035   0.035 -2.2744  2.2319 -1.7893
    9PVA    C28 1451   1.912   7.182   0.174 -0.9805  0.1299 -0.1102
    9PVA    H55 1452   1.895   7.195   0.282 -3.2401  0.2331 -0.4295
    9PVA    H56 1453   2.005   7.125   0.172 -0.6906  0.5763  0.3479
    9PVA    C29 1454   1.933   7.319   0.108  0.0453  0.5381 -0.6886
    9PVA    H57 1455   1.841   7.377   0.124 -1.4585 -2.3493  2.6243
    9PVA    O10 1456   1.960   7.301   8.074  0.2900 -0.5088 -0.7739
    9PVA    H58 1457   1.908   7.222   8.054  0.4691 -0.9811  0.5116
    9PVA    C30 1458   2.048   7.397   0.177  0.8986 -0.0760  0.0678
    9PVA    H59 1459   2.070   7.355   0.276  2.7245  3.2903  1.2343
    9PVA    H60 1460   2.153   7.382   0.148  0.9987  0.3072  0.2245
    9PVA    C31 1461   2.018   7.554   0.221 -0.2260  0.3107  0.0988
    9PVA    H61 1462   1.980   7.597   0.128  2.4063  2.9070  0.0752
    9PVA    H62 1463   1.938   7.566   0.295  1.0132 -0.4075  1.6321
    9PVA    C32 1464   2.150   7.625   0.263  0.3804 -0.5597  1.1684
    9PVA    H63 1465   2.198   7.633   0.165  1.0479 -0.5465  1.4921
    9PVA    O11 1466   2.222   7.550   0.352  0.6152  0.0827 -0.1161
    9PVA    H64 1467   2.153   7.558   0.420  0.0539 -0.8037 -0.5682
    9PVA    C33 1468   2.126   0.080   0.330  0.0875 -0.2277  0.4168
    9PVA    H65 1469   2.121   0.167   0.264 -0.6483 -0.1026  0.6299
    9PVA    H66 1470   2.041   0.087   0.399  0.8082  3.5964  1.1298
    9PVA    C34 1471   2.246   0.132   0.423 -0.0629 -0.4122  1.4357
    9PVA    H67 1472   2.259   0.079   0.517 -1.0835  1.4346  2.6773
    9PVA    H68 1473   2.339   0.120   0.365 -1.4435  1.6271 -1.4832
    9PVA    C35 1474   2.246   0.284   0.464 -0.5125  1.0715 -0.2529
    9PVA    H69 1475   2.187   0.340   0.389 -2.4428  2.2863  2.0186
    9PVA    O12 1476   2.179   0.304   0.590  1.5687 -0.9499  0.5110
    9PVA    H70 1477   2.110   0.236   0.599  2.3757 -1.7440  0.9176
    9PVA    C36 1478   2.386   0.357   0.489 -1.1806  0.5961 -0.5845
    9PVA    H71 1479   2.441   0.307   0.570  0.6474  2.4628 -0.5881
    9PVA    H72 1480   2.457   0.332   0.409 -0.7773  2.5460 -0.8827
    9PVA    C37 1481   2.402   0.513   0.524  0.7832  0.3088  0.5527
    9PVA    H73 1482   2.340   0.533   0.612 -2.4964 -0.2407 -1.4530
    9PVA    H74 1483   2.354   0.561   0.438  4.8352 -0.5020 -2.4624
    9PVA    C38 1484   2.543   0.574   0.527 -0.9562 -0.9889  0.8174
    9PVA    H75 1485   2.603   0.551   0.438 -0.5490 -0.2154  0.8875
    9PVA    O13 1486   2.609   0.523   0.641 -0.4091  0.1454 -0.0092
    9PVA    H76 1487   2.633   0.593   0.704 -1.5607  2.8687 -2.3321
    9PVA    C39 1488   2.543   0.737   0.536  0.0541 -0.1511  0.5533
    9PVA    H77 1489   2.438   0.769   0.532  0.5461  1.6290  1.1715
    9PVA    H78 1490   2.593   0.759   0.441 -2.4320 -1.3046 -1.1317
    9PVA    C40 1491   2.618   0.824   0.653 -0.6028  0.3303  0.6884
    9PVA    H79 1492   2.726   0.815   0.641 -0.5850  1.9429 -0.7268
    9PVA    H80 1493   2.592   0.790   0.755 -1.4760  1.5244  0.8849
    9PVA    C41 1494   2.558   0.971   0.655 -0.1581  0.6024  0.2424
    9PVA    H81 1495   2.581   0.997   0.551  2.2771 -3.0837 -0.3416
    9PVA    O14 1496   2.419   0.981   0.676  0.1725 -0.5851 -0.4819
    9PVA    H82 1497   2.414   0.952   0.768  0.2630 -2.3002 -0.9753
    9PVA    C42 1498   2.634   1.066   0.746  0.5771  0.1002  2.0418
    9PVA    H83 1499   2.742   1.060   0.730  0.5962 -1.4704  2.5855
    9PVA    H84 1500   2.608   1.039   0.849 -5.2839  0.0749  0.8933
    9PVA    C43 1501   2.574   1.212   0.764 -0.9090  0.4818  0.0767
    9PVA    H85 1502   2.571   1.254   0.663 -0.1640 -1.0816 -0.6424
    9PVA    H86 1503   2.468   1.214   0.792 -0.7523  1.6996  0.6241
    9PVA    C44 1504   2.663   1.319   0.839 -0.4925  0.1971 -0.3579
    9PVA    H87 1505   2.742   1.256   0.882  0.4191  0.9141 -0.9356
    9PVA    O15 1506   2.574   1.364   0.931  0.8936  1.0949 -0.1626
    9PVA    H88 1507   2.618   1.425   0.994  0.1869 -0.1014  1.5873
    9PVA    C45 1508   2.714   1.444   0.754 -0.0925  0.0870 -0.5291
    9PVA    H89 1509   2.632   1.484   0.694  0.9887  2.7867 -0.3605
    9PVA    H90 1510   2.792   1.410   0.686 -1.8269 -3.1177 -1.1233
    9PVA    C46 1511   2.780   1.567   0.830 -0.5506  0.1354 -0.3821
    9PVA    H91 1512   2.712   1.615   0.901 -0.1587  3.9443 -2.3091
    9PVA    H92 1513   2.870   1.524   0.875 -0.4613 -0.6880 -1.3141
    9PVA    C47 1514   2.822   1.677   0.724 -1.0653  0.7546 -0.1795
    9PVA    H93 1515   2.746   1.688   0.646  0.0193  0.3077 -1.3297
    9PVA    O16 1516   2.933   1.631   0.663 -0.4939  0.4124  0.9612
    9PVA    H94 1517   2.990   1.590   0.730 -0.8474  0.8539  1.5442
    9PVA    C48 1518   2.838   1.823   0.771  0.1542 -0.3869  0.1358
    9PVA    H95 1519   2.743   1.850   0.819  2.5727  2.4287  3.9473
    9PVA    H96 1520   2.916   1.827   0.848 -0.1059  0.8167  0.3535
    9PVA    C49 1521   2.871   1.928   0.654 -0.3749 -0.5403 -0.4440
    9PVA    H97 1522   2.799   1.925   0.572 -0.9799  0.8843 -0.0036
    9PVA    H98 1523   2.976   1.919   0.624  0.8190  3.2841  1.8761
    9PVA    C50 1524   2.854   2.074   0.722 -0.7894  0.3397 -0.6318
    9PVA    H99 1525   2.754   2.067   0.767 -1.1989 -4.1119 -1.7603
    9PVA    O17 1526   2.936   2.095   0.829  0.4633 -0.4538 -1.0851
    9PVA   H100 1527   2.982   2.181   0.825  0.7796 -0.6549 -2.2368
    9PVA    C51 1528   2.870   2.197   0.631  0.3689  1.1523 -0.4995
    9PVA   H101 1529   2.893   2.135   0.544  1.6086 -0.4114  0.8669
    9PVA   H102 1530   2.778   2.250   0.603 -2.3562 -1.3616  2.8288
   10PVA     C1 1531   4.940   6.435   3.759 -0.1430  0.0687 -0.5688
   10PVA     H1 1532   4.853   6.502   3.759 -0.5693 -0.3431  2.4735
   10PVA     H2 1533   4.905   6.340   3.718 -3.8901  0.2772  1.7010
   10PVA     C2 1534   4.965   6.406   3.919 -0.1715  0.1045 -0.1980
   10PVA     H3 1535   4.945   6.504   3.964 -0.9610  1.5497 -3.4025
   10PVA     O1 1536   5.098   6.375   3.957  0.6843 -0.2258 -0.9420
   10PVA     H4 1537   5.135   6.309   3.896 -2.7821 -2.5179 -0.8420
   10PVA     C3 1538   4.865   6.287   3.955  0.6057 -0.0705  0.0242
   10PVA     H5 1539   4.909   6.209   3.892  0.2925  0.2051 -0.5438
   10PVA     H6 1540   4.769   6.310   3.908  0.4430 -0.9282 -0.0703
   10PVA     C4 1541   4.827   6.249   4.100 -0.8484 -0.2604  1.7285
   10PVA     H7 1542   4.914   6.226   4.163  0.3452  2.6359  1.3013
   10PVA     H8 1543   4.773   6.336   4.139  0.9394  2.0615 -0.6118
   10PVA     C5 1544   4.723   6.132   4.114  0.1933 -0.7160 -1.4654
   10PVA     H9 1545   4.770   6.064   4.042  2.6818 -0.8752  0.1960
   10PVA     O2 1546   4.597   6.174   4.065 -0.7854  0.0898 -1.2469
   10PVA    H10 1547   4.554   6.101   4.018  0.6568 -1.1941 -0.6646
   10PVA     C6 1548   4.702   6.092   4.261  0.1878  1.1129  0.8263
   10PVA    H11 1549   4.787   6.098   4.330 -0.0896  0.1865  1.2758
   10PVA    H12 1550   4.633   6.166   4.303  3.1976  3.6500  1.6810
   10PVA     C7 1551   4.647   5.934   4.270  0.3481  0.5352 -0.9008
   10PVA    H13 1552   4.740   5.874   4.270  1.6276  2.3457  1.2442
   10PVA    H14 1553   4.594   5.896   4.182  1.5889 -1.3519 -0.8859
   10PVA     C8 1554   4.578   5.887   4.404  0.1549  0.5156 -0.0734
   10PVA    H15 1555   4.647   5.892   4.489  0.4527 -0.7051 -0.2258
   10PVA     O3 1556   4.468   5.973   4.413  0.6341 -0.4828 -0.4413
   10PVA    H16 1557   4.488   6.016   4.328 -1.7651  3.1048  0.6012
   10PVA     C9 1558   4.541   5.738   4.400  0.7785 -0.4636 -0.0129
   10PVA    H17 1559   4.637   5.683   4.395  1.3779  0.6763 -2.5001
   10PVA    H18 1560   4.469   5.699   4.327 -0.0653 -0.4873  0.8160
   10PVA    C10 1561   4.473   5.699   4.528  0.3878  0.0839 -0.1000
   10PVA    H19 1562   4.493   5.770   4.609  0.0877 -1.8898  1.7799
   10PVA    H20 1563   4.365   5.692   4.510 -0.3012  2.5844  2.3436
   10PVA    C11 1564   4.524   5.578   4.598  0.3202 -0.4582  0.2251
   10PVA    H21 1565   4.630   5.601   4.617  2.1371 -4.5895 -3.1672
   10PVA     O4 1566   4.519   5.463   4.522 -0.4795  0.5782 -0.5743
   10PVA    H22 1567   4.611   5.436   4.538 -0.5189  1.4327  1.2614
   10PVA    C12 1568   4.452   5.555   4.737 -0.0088 -0.1971 -0.7479
   10PVA    H23 1569   4.439   5.648   4.794 -1.0175 -1.5465  1.3519
   10PVA    H24 1570   4.346   5.531   4.724  0.1084 -1.0333 -0.2357
   10PVA    C13 1571   4.513   5.439   4.817 -0.3477 -0.2737  0.0380
   10PVA    H25 1572   4.617   5.457   4.846 -0.7239  0.4453  0.9597
   10PVA    H26 1573   4.518   5.355   4.746 -1.6059 -2.6766  2.6166
   10PVA    C14 1574   4.433   5.409   4.952  0.1826 -1.0159  1.2554
   10PVA    H27 1575   4.432   5.514   4.985 -2.2617  0.2550 -2.2634
   10PVA     O5 1576   4.299   5.376   4.920  0.8060 -0.1212  0.7687
   10PVA    H28 1577   4.260   5.347   5.004  0.4644 -3.4966 -0.3818
   10PVA    C15 1578   4.485   5.311   5.051 -0.0702  0.5237  0.1723
   10PVA    H29 1579   4.592   5.334   5.061 -0.1869  0.1895  5.7920
   10PVA    H30 1580   4.475   5.220   4.991  0.0724  2.1826 -2.5314
   10PVA    C16 1581   4.425   5.315   5.196 -0.2519  0.4107  1.7781
   10PVA    H31 1582   4.446   5.419   5.224  3.0599  0.6530 -0.9501
   10PVA    H32 1583   4.322   5.302   5.161  0.5577  1.5394 -1.3072
   10PVA    C17 1584   4.488   5.205   5.291  0.0807  0.2096  0.1957
   10PVA    H33 1585   4.504   5.107   5.244  0.3210 -0.8655  2.3873
   10PVA     O6 1586   4.615   5.256   5.310 -0.5182 -0.5275  0.5713
   10PVA    H34 1587   4.670   5.182   5.340  0.2699  0.5812  1.9583
   10PVA    C18 1588   4.428   5.197   5.431 -0.1409 -0.5587 -0.0524
   10PVA    H35 1589   4.454   5.293   5.477  2.5573 -1.6792  0.9924
   10PVA    H36 1590   4.318   5.199   5.438 -0.3048  0.0879 -2.1320
   10PVA    C19 1591   4.495   5.088   5.521  0.0751 -0.8265 -1.3351
   10PVA    H37 1592   4.600   5.104   5.547 -0.6232 -0.9500  1.9900
   10PVA    H38 1593   4.500   4.995   5.462  2.4250 -0.5038 -1.7378
   10PVA    C20 1594   4.406   5.065   5.644 -0.7013  0.8866  0.4653
   10PVA    H39 1595   4.308   5.049   5.597  1.0069 -2.5165 -2.4018
   10PVA     O7 1596   4.386   5.174   5.734  0.0324  0.4860  0.5281
   10PVA    H40 1597   4.439   5.137   5.807  0.9420  0.4276 -0.1370
   10PVA    C21 1598   4.426   4.919   5.713 -0.9686 -0.2724 -0.4862
   10PVA    H41 1599   4.399   4.841   5.640  5.6448 -1.8349 -1.9523
   10PVA    H42 1600   4.528   4.880   5.713 -0.6887  0.1284 -3.7470
   10PVA    C22 1601   4.327   4.875   5.837 -0.3942  1.5136  0.7031
   10PVA    H43 1602   4.222   4.898   5.819  0.3653  5.3965  0.3958
   10PVA    H44 1603   4.364   4.949   5.909 -0.3422  0.4350  1.8155
   10PVA    C23 1604   4.341   4.727   5.900  1.0944  0.1820  0.6888
   10PVA    H45 1605   4.424   4.735   5.972  1.7637  0.7930 -0.1361
   10PVA     O8 1606   4.369   4.633   5.807 -0.4408  0.5110  0.6219
   10PVA    H46 1607   4.306   4.643   5.734 -2.5694  1.9073  2.5267
   10PVA    C24 1608   4.219   4.686   5.993  0.1592  1.7464 -1.3806
   10PVA    H47 1609   4.157   4.775   6.008 -0.3175  1.1285  0.6138
   10PVA    H48 1610   4.154   4.617   5.938  2.3763 -0.7425 -1.1335
   10PVA    C25 1611   4.264   4.623   6.130 -0.9355  0.0079 -0.5360
   10PVA    H49 1612   4.329   4.695   6.183  0.0599 -1.5532  0.4563
   10PVA    H50 1613   4.333   4.540   6.113 -0.1372 -0.1428  2.7950
   10PVA    C26 1614   4.143   4.559   6.205 -0.4203 -0.1893 -0.1810
   10PVA    H51 1615   4.076   4.512   6.132 -1.7449  1.3994 -0.0286
   10PVA     O9 1616   4.078   4.653   6.285 -0.0606  0.3254  0.5016
   10PVA    H52 1617   4.148   4.719   6.300 -1.6469  3.0569 -2.7435
   10PVA    C27 1618   4.188   4.465   6.320  0.0761 -0.2190  0.3665
   10PVA    H53 1619   4.257   4.515   6.390 -1.1413 -1.6035  2.6648
   10PVA    H54 1620   4.236   4.376   6.278 -1.2572 -0.6264 -0.3569
   10PVA    C28 1621   4.064   4.401   6.402  0.7138 -0.7363  1.9985
   10PVA    H55 1622   3.996   4.346   6.336  0.1985  0.9572  1.0651
   10PVA    H56 1623   4.012   4.496   6.420  1.9954  1.2802 -3.0711
   10PVA    C29 1624   4.113   4.323   6.531  0.9649 -0.4622 -0.7640
   10PVA    H57 1625   4.198   4.374   6.578  1.6387 -4.7221  3.4612
   10PVA    O10 1626   4.152   4.200   6.487 -0.3435  1.2775 -0.3832
   10PVA    H58 1627   4.111   4.139   6.551  0.1777 -1.4329 -2.4532
   10PVA    C30 1628   3.998   4.313   6.644  0.4746 -0.2926  1.3316
   10PVA    H59 1629   3.971   4.417   6.668 -1.2671 -0.5617  0.6724
   10PVA    H60 1630   3.910   4.307   6.579  2.0125  2.7411 -1.3717
   10PVA    C31 1631   3.985   4.201   6.758  0.5817  0.7074  0.5836
   10PVA    H61 1632   4.069   4.207   6.828 -0.2073 -4.4940  2.4436
   10PVA    H62 1633   3.989   4.098   6.720 -0.9436  0.1257  1.8661
   10PVA    C32 1634   3.847   4.222   6.830 -0.7346  0.4827  0.1935
   10PVA    H63 1635   3.858   4.321   6.874 -0.5566  1.6958 -2.4248
   10PVA    O11 1636   3.740   4.244   6.748 -0.1426 -0.6641  0.0256
   10PVA    H64 1637   3.683   4.167   6.729 -2.7887  1.9679 -4.4863
   10PVA    C33 1638   3.820   4.104   6.929 -0.3479  0.2895 -1.1569
   10PVA    H65 1639   3.836   4.018   6.864  0.3028 -1.1326  0.7752
   10PVA    H66 1640   3.895   4.091   7.008  2.0598  0.3625 -3.2912
   10PVA    C34 1641   3.684   4.103   7.014  0.1609 -0.7493 -0.4423
   10PVA    H67 1642   3.687   4.200   7.064  0.5001 -1.6573  1.4050
   10PVA    H68 1643   3.607   4.107   6.936 -1.0748  0.8152  0.8175
   10PVA    C35 1644   3.667   3.978   7.110  0.6771 -0.1541  0.0161
   10PVA    H69 1645   3.715   3.983   7.209  0.3312 -3.1630  0.4346
   10PVA    O12 1646   3.735   3.879   7.040 -0.4062  1.6390 -0.0215
   10PVA    H70 1647   3.829   3.887   7.064 -0.2625 -0.0305  0.1074
   10PVA    C36 1648   3.514   3.957   7.147 -0.2110 -1.0456 -0.1986
   10PVA    H71 1649   3.503   4.040   7.218 -1.6762 -0.1202 -1.4581
   10PVA    H72 1650   3.469   3.986   7.052  3.4656  0.6525 -1.5984
   10PVA    C37 1651   3.481   3.818   7.197  1.5327  0.6000 -0.6741
   10PVA    H73 1652   3.566   3.773   7.249  0.0217 -2.3490 -0.5012
   10PVA    H74 1653   3.437   3.744   7.129 -1.3962  0.8604  0.7367
   10PVA    C38 1654   3.370   3.816   7.323  0.1950  0.0375  2.0467
   10PVA    H75 1655   3.412   3.875   7.406  0.6018  0.3219  1.6433
   10PVA    O13 1656   3.262   3.894   7.299 -0.1460  0.2718 -0.6162
   10PVA    H76 1657   3.233   3.914   7.390  5.5169 -1.2603  1.9131
   10PVA    C39 1658   3.350   3.674   7.397 -0.5205 -0.0181  0.0036
   10PVA    H77 1659   3.448   3.625   7.394  0.4482  1.8109  0.2244
   10PVA    H78 1660   3.285   3.613   7.333  0.9078 -2.3664  0.6721
   10PVA    C40 1661   3.301   3.656   7.542  0.4806 -0.6180  0.1732
   10PVA    H79 1662   3.389   3.663   7.607  0.5108 -1.8233  0.2898
   10PVA    H80 1663   3.249   3.746   7.577 -4.1013 -3.2580  0.9175
   10PVA    C41 1664   3.203   3.538   7.603  0.9965 -0.1690 -0.1961
   10PVA    H81 1665   3.098   3.568   7.604  1.1021  0.2093  0.6065
   10PVA    O14 1666   3.224   3.427   7.518  0.5498 -0.2037 -0.0577
   10PVA    H82 1667   3.285   3.363   7.559 -1.8348 -2.8252 -0.3466
   10PVA    C42 1668   3.226   3.478   7.743  0.1141  0.0924  0.3160
   10PVA    H83 1669   3.222   3.560   7.816 -0.5975 -0.7971  1.3095
   10PVA    H84 1670   3.334   3.463   7.760 -0.5675 -1.8994  3.8524
   10PVA    C43 1671   3.148   3.356   7.811  0.2932  0.1387 -0.0615
   10PVA    H85 1672   3.052   3.408   7.817  0.4680  0.7987  8.1623
   10PVA    H86 1673   3.157   3.271   7.743 -4.0513 -1.8271  1.4762
   10PVA    C44 1674   3.190   3.313   7.957  0.0085  0.3781 -1.4076
   10PVA    H87 1675   3.278   3.250   7.941 -2.4541 -3.0932 -2.3306
   10PVA    O15 1676   3.224   3.424   8.035 -0.4855 -0.2275 -0.5671
   10PVA    H88 1677   3.138   3.453   8.071 -0.9838 -1.1892 -0.9530
   10PVA    C45 1678   3.085   3.226   8.028 -0.2090  0.7928  0.2674
   10PVA    H89 1679   3.072   3.129   7.978 -2.0400 -0.5964  3.1284
   10PVA    H90 1680   2.990   3.280   8.031 -0.4315  0.8822 -3.5681
   10PVA    C46 1681   3.118   3.176   0.079 -0.1035 -0.4690  0.3043
   10PVA    H91 1682   3.218   3.132   0.087  2.3464  4.1329 -1.0684
   10PVA    H92 1683   3.120   3.262   0.147 -1.6559  0.8508 -1.1988
   10PVA    C47 1684   3.029   3.067   0.136  0.0777 -0.0855 -0.3356
   10PVA    H93 1685   3.027   2.987   0.061  2.8467  1.0890 -1.8256
   10PVA    O16 1686   2.891   3.102   0.151  0.7936  0.8475  0.6035
   10PVA    H94 1687   2.893   3.186   0.201 -3.6717  3.2631 -2.5342
   10PVA    C48 1688   3.075   3.000   0.276 -0.4040  0.6163 -0.2906
   10PVA    H95 1689   3.178   2.964   0.282  0.0815  1.7568 -1.2130
   10PVA    H96 1690   3.086   3.077   0.354  1.9205  0.4611 -0.4104
   10PVA    C49 1691   2.975   2.889   0.323  0.6676  0.5952 -0.5470
   10PVA    H97 1692   2.969   2.801   0.257  2.7655 -2.2088  2.6556
   10PVA    H98 1693   2.874   2.930   0.338  0.2075 -1.2752  2.2528
   10PVA    C50 1694   2.993   2.806   0.464 -1.4280 -0.1854  0.8245
   10PVA    H99 1695   3.048   2.890   0.508 -0.0982  1.0673 -2.8766
   10PVA    O17 1696   2.873   2.785   0.531  0.4309 -0.1834  0.5639
   10PVA   H100 1697   2.805   2.852   0.514 -0.3318 -1.4697 -1.9572
   10PVA    C51 1698   3.074   2.663   0.471 -0.3853  0.0913 -0.8104
   10PVA   H101 1699   3.178   2.687   0.493 -1.0117  1.9693  0.3437
   10PVA   H102 1700   3.081   2.605   0.378 -1.5756 -1.5977  0.0932
   11PVA     C1 1701   5.067   6.540   3.261 -0.4107 -0.4491  0.5568
   11PVA     H1 1702   4.977   6.578   3.211 -0.6169  1.6606  2.3655
   11PVA     H2 1703   5.073   6.431   3.259 -3.7783 -0.7199 -1.0419
   11PVA     C2 1704   5.183   6.614   3.185 -0.7508 -0.6680  0.2885
   11PVA     H3 1705   5.185   6.721   3.210  2.2926 -0.4056 -0.7034
   11PVA     O1 1706   5.306   6.544   3.228 -0.1662 -0.4383  0.1684
   11PVA     H4 1707   5.282   6.542   3.322 -2.3672  4.4722  0.0112
   11PVA     C3 1708   5.157   6.613   3.039  0.5939 -0.9811 -0.8309
   11PVA     H5 1709   5.075   6.682   3.016  1.3770 -0.0244 -0.7800
   11PVA     H6 1710   5.118   6.514   3.013 -3.8295  0.1949  0.3719
   11PVA     C4 1711   5.295   6.648   2.964  0.4126  1.1685  0.1317
   11PVA     H7 1712   5.313   6.756   2.974 -2.4514  1.6217  1.5157
   11PVA     H8 1713   5.381   6.610   3.020  0.2298 -1.5769 -1.2953
   11PVA     C5 1714   5.299   6.627   2.801  0.0265 -0.2862  0.5749
   11PVA     H9 1715   5.256   6.532   2.765 -0.1607 -0.8205  2.1158
   11PVA     O2 1716   5.193   6.708   2.751 -0.4123 -0.0755  0.7744
   11PVA    H10 1717   5.107   6.686   2.790  0.6770 -1.4118  2.6057
   11PVA     C6 1718   5.430   6.687   2.744 -0.5731  0.1395  1.3735
   11PVA    H11 1719   5.423   6.797   2.737  0.6302  0.2528 -5.6178
   11PVA    H12 1720   5.506   6.646   2.811 -1.7081 -1.9791  1.4540
   11PVA     C7 1721   5.446   6.618   2.594 -0.2658  1.1260 -1.1438
   11PVA    H13 1722   5.361   6.617   2.526 -1.2327  1.8716  0.0133
   11PVA    H14 1723   5.455   6.510   2.607  3.7249  1.1434 -2.2217
   11PVA     C8 1724   5.563   6.694   2.509 -0.1980 -0.3260  0.4176
   11PVA    H15 1725   5.574   6.801   2.531 -2.4120  1.4775 -5.3485
   11PVA     O3 1726   5.677   6.630   2.551 -1.1689  0.8447 -0.1466
   11PVA    H16 1727   5.743   6.692   2.515 -2.4892  1.5753 -1.3945
   11PVA     C9 1728   5.546   6.685   2.353 -1.8161  0.4283  0.9086
   11PVA    H17 1729   5.492   6.591   2.335 -2.5413  0.8792  0.6865
   11PVA    H18 1730   5.473   6.759   2.319 -3.4120 -1.6041 -0.3097
   11PVA    C10 1731   5.676   6.696   2.258  0.5145  1.0511 -0.1208
   11PVA    H19 1732   5.734   6.780   2.298 -1.4317  1.3500  2.3211
   11PVA    H20 1733   5.724   6.602   2.286 -0.0185  0.6242 -0.6118
   11PVA    C11 1734   5.647   6.709   2.108 -1.0839  0.1702  1.5160
   11PVA    H21 1735   5.609   6.612   2.074 -1.7417  0.9002  0.0774
   11PVA     O4 1736   5.550   6.815   2.079  0.5673 -0.0264 -0.4743
   11PVA    H22 1737   5.482   6.826   2.147 -2.9449  3.4993 -3.9951
   11PVA    C12 1738   5.783   6.725   2.038 -0.1752 -0.2490  0.5053
   11PVA    H23 1739   5.856   6.645   2.056  5.2073  3.9585 -0.0689
   11PVA    H24 1740   5.771   6.709   1.930  0.1999 -0.6606  0.5195
   11PVA    C13 1741   5.848   6.870   2.051  0.6053  0.0180 -0.3013
   11PVA    H25 1742   5.816   6.917   2.146  1.8644 -0.5803  0.4376
   11PVA    H26 1743   5.791   6.937   1.985 -0.2631  0.3655  0.7692
   11PVA    C14 1744   6.006   6.886   2.010  0.6199 -0.5186 -0.8931
   11PVA    H27 1745   6.032   6.783   1.981  0.9079 -0.5230 -0.6201
   11PVA     O5 1746   6.056   6.936   2.138 -0.5420 -0.9174  0.7720
   11PVA    H28 1747   6.152   6.918   2.129  0.0071  2.3778 -2.3517
   11PVA    C15 1748   6.035   6.987   1.892  0.9475 -0.1810 -0.6513
   11PVA    H29 1749   5.993   6.933   1.806 -1.2852  0.5818 -0.1102
   11PVA    H30 1750   5.968   7.073   1.900 -1.1949 -1.7879 -0.3740
   11PVA    C16 1751   6.184   7.026   1.878  0.0476 -0.1164  0.1197
   11PVA    H31 1752   6.238   6.931   1.890 -1.2972 -0.7660  1.5044
   11PVA    H32 1753   6.219   7.091   1.959  0.0908 -0.4023  0.3315
   11PVA    C17 1754   6.221   7.089   1.736  0.6226  0.4934  0.3994
   11PVA    H33 1755   6.166   7.024   1.667  5.0208 -2.8800 -0.4239
   11PVA     O6 1756   6.186   7.218   1.725 -0.5172  0.3156  0.3628
   11PVA    H34 1757   6.190   7.262   1.812  1.1582 -2.4343  1.7796
   11PVA    C18 1758   6.378   7.071   1.715  0.5433  0.0739  0.9212
   11PVA    H35 1759   6.409   7.176   1.719  0.4361  0.3158 -2.0062
   11PVA    H36 1760   6.443   7.025   1.790  1.7019 -0.6410 -0.4718
   11PVA    C19 1761   6.429   7.015   1.578 -0.3559  0.4565  0.3010
   11PVA    H37 1762   6.371   7.049   1.491  5.2943  2.4580 -3.1706
   11PVA    H38 1763   6.410   6.908   1.589  1.3337  0.1287  0.2893
   11PVA    C20 1764   6.566   7.050   1.523 -0.0158 -0.4767  0.4253
   11PVA    H39 1765   6.560   7.159   1.526  1.2102 -0.3688 -0.4525
   11PVA     O7 1766   6.682   6.999   1.585 -0.2407  0.1062 -0.2485
   11PVA    H40 1767   6.714   7.074   1.639  1.8630 -0.6245 -0.3838
   11PVA    C21 1768   6.589   7.007   1.371  0.4917  0.7311 -0.6596
   11PVA    H41 1769   6.513   7.059   1.311 -0.7449  0.8276  0.9415
   11PVA    H42 1770   6.578   6.898   1.366 -1.2745  0.5477  3.3779
   11PVA    C22 1771   6.718   7.050   1.305  0.5589  0.6025 -1.1973
   11PVA    H43 1772   6.740   7.156   1.325  0.5616  0.3083  0.5178
   11PVA    H44 1773   6.803   7.013   1.364 -0.3599  0.8315  0.3127
   11PVA    C23 1774   6.734   7.015   1.162 -0.0508 -0.5084 -0.0768
   11PVA    H45 1775   6.731   6.906   1.149  0.2222 -0.4191 -0.9381
   11PVA     O8 1776   6.620   7.071   1.095 -0.0131  0.3523  0.5821
   11PVA    H46 1777   6.642   7.163   1.071  1.6895 -0.5868 -1.9033
   11PVA    C24 1778   6.853   7.085   1.094  1.4365 -0.4351 -0.1312
   11PVA    H47 1779   6.930   7.107   1.169  2.5138 -0.5993 -1.1460
   11PVA    H48 1780   6.820   7.187   1.068 -0.2420 -0.3661  2.0378
   11PVA    C25 1781   6.896   7.032   0.949 -1.3419 -0.4225 -0.2482
   11PVA    H49 1782   6.915   6.924   0.943 -1.5205 -0.5310  0.8737
   11PVA    H50 1783   6.820   7.056   0.874  0.0228  2.5087 -0.8275
   11PVA    C26 1784   7.030   7.094   0.906  0.3112  0.5027  1.6929
   11PVA    H51 1785   7.123   7.056   0.948  2.1854 -2.1713 -3.8517
   11PVA     O9 1786   7.036   7.224   0.959 -0.2175  0.3247 -0.8457
   11PVA    H52 1787   6.949   7.259   0.983  1.4642  3.3437  1.3881
   11PVA    C27 1788   7.041   7.107   0.750 -0.1568 -0.1447 -0.0503
   11PVA    H53 1789   6.976   7.194   0.735 -0.5547 -0.3908  0.2140
   11PVA    H54 1790   6.976   7.029   0.710  0.4654 -0.0773 -1.2320
   11PVA    C28 1791   7.183   7.120   0.689 -0.1188 -0.0711  0.8125
   11PVA    H55 1792   7.244   7.193   0.744  3.2204 -3.1043  1.5357
   11PVA    H56 1793   7.225   7.020   0.704  1.6648  0.5910  0.4762
   11PVA    C29 1794   7.210   7.145   0.540 -0.3815 -1.0719  1.2777
   11PVA    H57 1795   7.153   7.076   0.477 -4.1155  1.5946  1.4015
   11PVA    O10 1796   7.149   7.268   0.510  0.5286  0.1159  0.5911
   11PVA    H58 1797   7.055   7.257   0.533 -0.5750  1.6836 -2.5823
   11PVA    C30 1798   7.366   7.126   0.494 -0.3668 -1.2520  0.1832
   11PVA    H59 1799   7.413   7.220   0.527 -1.7086 -0.8270  0.9985
   11PVA    H60 1800   7.425   7.056   0.553  2.0864  1.4577  1.1581
   11PVA    C31 1801   7.390   7.095   0.345  0.9048  1.2710  0.1029
   11PVA    H61 1802   7.331   7.163   0.282  2.4820  1.4233 -1.2884
   11PVA    H62 1803   7.348   6.995   0.329  2.5344  0.5141  0.3470
   11PVA    C32 1804   7.538   7.085   0.296  0.1101  0.3219  0.0451
   11PVA    H63 1805   7.529   7.096   0.187  1.4408  0.8075 -0.0473
   11PVA    O11 1806   7.627   7.177   0.356 -0.2001  0.3288 -0.2004
   11PVA    H64 1807   7.661   7.233   0.285  2.7400 -1.8160 -0.6584
   11PVA    C33 1808   7.612   6.950   0.306 -0.3202 -0.3989  1.1357
   11PVA    H65 1809   7.653   6.910   0.399 -0.4187 -1.8101  0.6071
   11PVA    H66 1810   7.563   6.864   0.258  1.5407 -0.1895 -1.3529
   11PVA    C34 1811   7.755   6.955   0.224  0.7692  1.2112 -0.1177
   11PVA    H67 1812   7.737   6.968   0.117 -1.5542  3.8057  0.4661
   11PVA    H68 1813   0.041   7.048   0.249 -1.4410  2.5357 -0.2609
   11PVA    C35 1814   0.085   6.827   0.245 -0.0989 -0.7033 -0.4899
   11PVA    H69 1815   0.119   6.838   0.349  1.0006  1.9672 -1.0347
   11PVA    O12 1816   0.020   6.694   0.241 -0.1083  0.6074 -0.2450
   11PVA    H70 1817   0.053   6.626   0.303  2.1013 -0.3892 -2.2965
   11PVA    C36 1818   0.203   6.821   0.155 -0.6493  0.3675  0.0684
   11PVA    H71 1819   0.173   6.765   0.065 -0.6469 -0.8157  0.7946
   11PVA    H72 1820   0.247   6.918   0.128 -1.2029  0.9979  1.3974
   11PVA    C37 1821   0.323   6.725   0.200 -0.3422 -0.3796  0.0653
   11PVA    H73 1822   0.292   6.620   0.201  3.5147 -1.8612 -3.4576
   11PVA    H74 1823   0.366   6.758   0.295  0.4084  4.2522 -1.6447
   11PVA    C38 1824   0.447   6.718   0.096 -0.0666  0.0652 -0.1969
   11PVA    H75 1825   0.430   6.621   0.047 -0.2261  0.1114 -0.2314
   11PVA    O13 1826   0.561   6.715   0.180  1.2203  0.8202 -0.7082
   11PVA    H76 1827   0.572   6.631   0.227  0.2309  0.5090 -1.0066
   11PVA    C39 1828   0.462   6.809   8.073  0.9436  0.2685  0.0662
   11PVA    H77 1829   0.477   6.906   0.025  1.4434 -1.3554  3.4575
   11PVA    H78 1830   0.377   6.792   8.005  1.9779  1.9437 -1.7251
   11PVA    C40 1831   0.588   6.771   7.991 -0.5821 -0.8933  0.8361
   11PVA    H79 1832   0.582   6.667   7.955  3.3073 -0.2625 -2.4222
   11PVA    H80 1833   0.673   6.762   8.059 -1.3225  0.0418  1.9171
   11PVA    C41 1834   0.625   6.864   7.877  0.3622 -0.9106  0.4672
   11PVA    H81 1835   0.563   6.852   7.787  0.0152  1.9302  0.2468
   11PVA    O14 1836   0.613   6.997   7.908 -0.2377 -0.0890 -0.4197
   11PVA    H82 1837   0.563   7.029   7.831 -2.2121 -1.5382  0.1998
   11PVA    C42 1838   0.771   6.835   7.808  1.2700  1.0281 -1.1832
   11PVA    H83 1839   0.834   6.853   7.896  0.2052 -0.3107 -0.0969
   11PVA    H84 1840   0.758   6.731   7.774 -0.6872  1.6376 -2.4636
   11PVA    C43 1841   0.811   6.908   7.679 -0.5274 -0.0867  0.3823
   11PVA    H85 1842   0.810   7.017   7.675 -2.1561 -0.0857 -3.6588
   11PVA    H86 1843   0.739   6.910   7.596  0.2835  3.6534 -0.4019
   11PVA    C44 1844   0.942   6.841   7.623 -0.1539  0.9803  0.3518
   11PVA    H87 1845   0.915   6.735   7.628 -5.9275  2.0677 -0.7542
   11PVA    O15 1846   1.055   6.865   7.698  0.0864  0.0461  0.1221
   11PVA    H88 1847   1.132   6.825   7.654  0.1100 -2.6016  2.2764
   11PVA    C45 1848   0.989   6.887   7.477 -0.1626  0.4496  0.0655
   11PVA    H89 1849   1.008   6.992   7.499  2.6901 -0.0116  0.2595
   11PVA    H90 1850   0.905   6.905   7.408 -0.6554  3.2223  1.2916
   11PVA    C46 1851   1.111   6.835   7.394  0.5684  0.1988  0.4036
   11PVA    H91 1852   1.194   6.809   7.460  0.6433 -1.3306 -0.2345
   11PVA    H92 1853   1.092   6.733   7.355  0.7953  1.9244 -5.1199
   11PVA    C47 1854   1.160   6.905   7.273  0.0880 -0.2703  0.7819
   11PVA    H93 1855   1.153   7.014   7.282  0.8220  0.0905 -2.0600
   11PVA    O16 1856   1.075   6.856   7.151 -0.4581 -0.3065 -1.3313
   11PVA    H94 1857   0.981   6.856   7.176 -0.7749 -0.9187 -2.4409
   11PVA    C48 1858   1.318   6.893   7.240  0.5556  0.1871 -0.1777
   11PVA    H95 1859   1.378   6.935   7.322  1.0489  1.7072 -1.2645
   11PVA    H96 1860   1.356   6.791   7.233  4.4838  1.3404  1.2387
   11PVA    C49 1861   1.369   6.948   7.101  0.4664 -0.0324  0.4860
   11PVA    H97 1862   1.334   7.052   7.099 -2.2167 -0.8459  0.9336
   11PVA    H98 1863   1.315   6.891   7.024  2.2106 -1.3724  0.2113
   11PVA    C50 1864   1.511   6.939   7.057 -0.3214 -0.5790 -0.2053
   11PVA    H99 1865   1.583   6.962   7.137 -1.0391 -0.5683  0.4470
   11PVA    O17 1866   1.531   6.796   7.030  0.6150 -0.5475 -0.3940
   11PVA   H100 1867   1.620   6.796   6.991  2.1770  3.3580  2.4574
   11PVA    C51 1868   1.548   7.024   6.933  1.0479  0.2466 -0.2189
   11PVA   H101 1869   1.465   7.027   6.861 -1.1708 -1.6926  2.0581
   11PVA   H102 1870   1.552   7.127   6.972  0.0864  0.0126  0.5582
   12PVA     C1 1871   3.133   2.067   1.491  0.0029  0.4316 -0.4947
   12PVA     H1 1872   3.180   1.994   1.424  4.2880  3.2653 -0.9811
   12PVA     H2 1873   3.026   2.070   1.469  0.0887 -0.5020 -1.0586
   12PVA     C2 1874   3.137   2.035   1.650 -0.6672  0.5779  1.2039
   12PVA     H3 1875   3.235   2.057   1.694  2.1423 -2.7918 -2.6132
   12PVA     O1 1876   3.151   1.899   1.654 -0.5753 -0.2864  0.3369
   12PVA     H4 1877   3.188   1.881   1.742  3.2309  1.8600 -0.5818
   12PVA     C3 1878   3.009   2.068   1.731  0.0772 -0.2563  0.3309
   12PVA     H5 1879   2.997   2.175   1.711  0.1087 -0.3474 -0.1995
   12PVA     H6 1880   2.918   2.020   1.692  0.9452 -1.0378 -0.8141
   12PVA     C4 1881   3.027   2.052   1.884  1.7909  0.8938 -0.0221
   12PVA     H7 1882   3.109   1.981   1.903  2.2600  1.0018 -1.5065
   12PVA     H8 1883   3.077   2.144   1.917  1.2070  1.7491 -1.4332
   12PVA     C5 1884   2.915   2.003   1.985  0.9555 -0.3513 -0.5699
   12PVA     H9 1885   2.831   2.070   1.962 -0.0441 -1.1522  0.6097
   12PVA     O2 1886   2.887   1.876   1.949 -1.5170  1.1064  0.7020
   12PVA    H10 1887   2.821   1.836   2.008 -2.1952 -0.0532 -0.7750
   12PVA     C6 1888   2.957   2.023   2.134 -0.0865  0.7797 -0.8941
   12PVA    H11 1889   3.064   1.999   2.143 -0.0279  1.1537 -0.5919
   12PVA    H12 1890   2.954   2.130   2.156  2.4411  0.5428  1.1340
   12PVA     C7 1891   2.868   1.936   2.236  0.1128 -0.1840  0.4454
   12PVA    H13 1892   2.878   1.831   2.209  3.6169  0.0534  0.2747
   12PVA    H14 1893   2.764   1.972   2.237  0.1424 -0.0536  2.4487
   12PVA     C8 1894   2.906   1.942   2.385 -0.5768 -1.6929 -0.8279
   12PVA    H15 1895   2.836   1.879   2.441 -0.5918  0.6707  2.0521
   12PVA     O3 1896   2.880   2.068   2.443  0.2253 -0.5685  0.2537
   12PVA    H16 1897   2.802   2.101   2.395 -0.0308 -1.6646 -0.1169
   12PVA     C9 1898   3.044   1.887   2.417  0.7279  0.3248 -0.9697
   12PVA    H17 1899   3.110   1.954   2.361  0.5160  1.2834 -0.0995
   12PVA    H18 1900   3.057   1.778   2.406 -1.8097 -0.4314  2.1501
   12PVA    C10 1901   3.091   1.909   2.569  0.6460  0.0004 -0.2129
   12PVA    H19 1902   3.116   2.015   2.581 -0.3229  0.1466  0.6573
   12PVA    H20 1903   2.997   1.873   2.612  0.3432  1.5668  0.5079
   12PVA    C11 1904   3.221   1.822   2.619 -0.3047  0.2897 -0.1327
   12PVA    H21 1905   3.233   1.720   2.578  2.6800  0.7825 -0.6926
   12PVA     O4 1906   3.331   1.871   2.547  0.6679 -0.2791  0.2352
   12PVA    H22 1907   3.391   1.795   2.534  0.9361 -0.0889  0.3678
   12PVA    C12 1908   3.239   1.835   2.781  0.6867 -0.4370  0.2439
   12PVA    H23 1909   3.241   1.942   2.808 -2.0888  0.1413 -1.4270
   12PVA    H24 1910   3.150   1.799   2.835 -1.0240  2.4254 -0.4144
   12PVA    C13 1911   3.369   1.776   2.834  1.0632 -0.2407  0.1061
   12PVA    H25 1912   3.452   1.823   2.780 -0.1448  1.6097 -0.2104
   12PVA    H26 1913   3.380   1.676   2.790 -0.2295 -1.1022  1.6296
   12PVA    C14 1914   3.407   1.753   2.980  0.3341  0.1194 -0.3633
   12PVA    H27 1915   3.343   1.816   3.043 -1.2920 -2.5301  0.8244
   12PVA     O5 1916   3.531   1.800   3.009 -0.1878 -0.8527  0.0612
   12PVA    H28 1917   3.533   1.894   2.985 -2.0478 -1.4656 -3.1231
   12PVA    C15 1918   3.400   1.609   3.050  0.3279  0.7738  1.3192
   12PVA    H29 1919   3.454   1.545   2.979 -3.3007 -0.8904 -0.1657
   12PVA    H30 1920   3.295   1.579   3.039 -0.1955  2.2736  1.9811
   12PVA    C16 1921   3.435   1.588   3.200  0.6588  0.0291  0.1743
   12PVA    H31 1922   3.404   1.684   3.242 -2.1334 -1.6850  2.3689
   12PVA    H32 1923   3.544   1.579   3.211  0.4592 -0.9295  1.6515
   12PVA    C17 1924   3.385   1.471   3.271 -0.0313  0.7041  0.0513
   12PVA    H33 1925   3.280   1.449   3.247  0.7613 -0.8959 -2.2912
   12PVA     O6 1926   3.451   1.358   3.242  0.6844  0.3831  0.4717
   12PVA    H34 1927   3.409   1.307   3.170  1.0971  3.1460 -1.9335
   12PVA    C18 1928   3.391   1.501   3.425 -0.3962 -0.5630  0.4087
   12PVA    H35 1929   3.486   1.462   3.463 -0.5083 -0.2992  0.9659
   12PVA    H36 1930   3.377   1.605   3.455  3.3933  0.2422 -0.0857
   12PVA    C19 1931   3.285   1.418   3.508 -0.0982  0.1942  0.4218
   12PVA    H37 1932   3.302   1.315   3.474 -3.0732  0.3241 -1.8433
   12PVA    H38 1933   3.191   1.452   3.462  0.8177  0.5582 -1.2612
   12PVA    C20 1934   3.295   1.430   3.669 -0.6546 -0.5350 -0.1004
   12PVA    H39 1935   3.303   1.537   3.687  6.9038 -0.8689  1.6467
   12PVA     O7 1936   3.414   1.398   3.725 -0.1997 -0.1060 -0.2539
   12PVA    H40 1937   3.388   1.314   3.767  2.0832  0.0272  1.6365
   12PVA    C21 1938   3.173   1.364   3.739  0.4159  0.5667 -0.0147
   12PVA    H41 1939   3.099   1.323   3.668 -0.7476 -0.0965  1.5182
   12PVA    H42 1940   3.103   1.438   3.780 -2.1134 -0.7286 -1.7282
   12PVA    C22 1941   3.193   1.261   3.857  0.4576 -0.7985 -0.3809
   12PVA    H43 1942   3.251   1.172   3.829  0.8364  0.1185 -2.7470
   12PVA    H44 1943   3.256   1.320   3.924  1.5228 -2.6129  0.2944
   12PVA    C23 1944   3.058   1.218   3.920  0.4804  0.3921  0.2282
   12PVA    H45 1945   3.002   1.308   3.947 -1.0257 -0.9161  1.6325
   12PVA     O8 1946   2.970   1.156   3.827 -0.4745  0.1355  1.4401
   12PVA    H46 1947   2.879   1.152   3.861 -3.1005  0.2311 -4.3188
   12PVA    C24 1948   3.063   1.120   4.038 -0.1233 -0.3587 -1.1938
   12PVA    H47 1949   3.074   1.022   3.990 -2.1206 -0.1598 -2.2083
   12PVA    H48 1950   3.161   1.141   4.082  2.2066 -2.6157 -4.7351
   12PVA    C25 1951   2.943   1.111   4.143 -0.6150 -0.0316  0.7974
   12PVA    H49 1952   2.845   1.145   4.106 -0.0782 -0.9707 -1.7074
   12PVA    H50 1953   2.955   1.202   4.203 -1.7048  0.0594  0.8938
   12PVA    C26 1954   2.941   1.005   4.264  0.2869  0.5086  0.9770
   12PVA    H51 1955   3.017   1.055   4.325  2.6098  1.3910 -2.3328
   12PVA     O9 1956   3.001   0.876   4.237 -0.1352 -0.8418  0.5966
   12PVA    H52 1957   3.020   0.846   4.328 -0.7444  1.3025  1.4977
   12PVA    C27 1958   2.805   0.986   4.326  0.5362  0.4277  0.1756
   12PVA    H53 1959   2.772   1.090   4.338  5.1160  2.3364 -1.3465
   12PVA    H54 1960   2.722   0.927   4.286  0.2671 -0.5497  2.0913
   12PVA    C28 1961   2.844   0.934   4.481  0.2348  0.7497 -0.0048
   12PVA    H55 1962   2.868   0.827   4.482 -1.6633  0.1425 -3.4858
   12PVA    H56 1963   2.919   1.007   4.513 -0.2880  0.0525  3.1067
   12PVA    C29 1964   2.720   0.934   4.582 -0.2928 -0.7935 -0.0732
   12PVA    H57 1965   2.644   0.857   4.568  0.3225 -2.6398  4.8954
   12PVA    O10 1966   2.656   1.066   4.568  1.1452 -0.0109 -0.7368
   12PVA    H58 1967   2.581   1.074   4.630  1.2804 -0.7556 -0.4727
   12PVA    C30 1968   2.750   0.912   4.726 -0.0991 -0.3898  0.7001
   12PVA    H59 1969   2.857   0.908   4.749 -0.1517 -0.1020  0.9967
   12PVA    H60 1970   2.749   1.017   4.758  1.6490  1.0414 -3.3065
   12PVA    C31 1971   2.652   0.820   4.806 -0.4109  0.1637  0.0640
   12PVA    H61 1972   2.609   0.746   4.737 -1.8590 -0.6779  1.7987
   12PVA    H62 1973   2.567   0.883   4.836  2.3819  2.8741  3.1517
   12PVA    C32 1974   2.714   0.755   4.943  0.3374 -0.7683 -0.0455
   12PVA    H63 1975   2.728   0.839   5.013 -1.0154 -0.9078  0.4320
   12PVA    O11 1976   2.838   0.689   4.919  1.1749 -0.1562  0.9305
   12PVA    H64 1977   2.851   0.670   4.825 -0.9118 -1.4166  0.8327
   12PVA    C33 1978   2.625   0.656   5.033 -0.0349 -0.0615 -0.4674
   12PVA    H65 1979   2.615   0.570   4.966  1.6127 -2.3523  2.0179
   12PVA    H66 1980   2.531   0.713   5.036 -1.4380 -2.1130 -2.2987
   12PVA    C34 1981   2.693   0.613   5.177  1.2174  0.2156  0.5570
   12PVA    H67 1982   2.701   0.708   5.230  1.5781  2.3958 -3.0412
   12PVA    H68 1983   2.795   0.584   5.147 -0.3566 -3.8104 -1.8223
   12PVA    C35 1984   2.638   0.501   5.276  0.7325  0.0642 -0.3952
   12PVA    H69 1985   2.640   0.404   5.225  0.6516 -1.3477  2.1286
   12PVA    O12 1986   2.504   0.522   5.326 -0.0690 -0.8814  1.0351
   12PVA    H70 1987   2.510   0.600   5.384 -0.6852  2.6539 -3.1573
   12PVA    C36 1988   2.731   0.477   5.403  0.6861 -0.2922 -0.9068
   12PVA    H71 1989   2.834   0.456   5.372  0.9496 -0.4036  0.0283
   12PVA    H72 1990   2.745   0.569   5.461 -0.5452 -1.0967  0.7285
   12PVA    C37 1991   2.699   0.352   5.505 -0.4300 -0.6218  0.1719
   12PVA    H73 1992   2.677   0.259   5.452 -2.4659  0.3025 -0.7426
   12PVA    H74 1993   2.616   0.373   5.573  1.5051  0.8067  2.2276
   12PVA    C38 1994   2.807   0.311   5.610 -1.5432 -0.4741 -0.9137
   12PVA    H75 1995   2.894   0.280   5.551 -1.9136 -2.2536 -0.5886
   12PVA    O13 1996   2.834   0.428   5.688  1.9875  0.7017 -0.4567
   12PVA    H76 1997   2.752   0.428   5.740  1.8623 -1.0456 -0.5794
   12PVA    C39 1998   2.754   0.198   5.697  0.1443 -0.6664 -0.0531
   12PVA    H77 1999   2.645   0.193   5.685  0.3235 -1.5697 -1.4668
   12PVA    H78 2000   2.782   0.225   5.800  2.6424 -2.1144 -0.2739
   12PVA    C40 2001   2.797   0.044   5.691  0.1990 -0.1194 -0.4727
   12PVA    H79 2002   2.734   7.669   5.624 -1.1287 -1.5781  1.9479
   12PVA    H80 2003   2.900   0.019   5.661 -0.2461 -2.1352 -0.4437
   12PVA    C41 2004   2.793   7.651   5.826  0.1561  0.6933  0.0840
   12PVA    H81 2005   2.789   0.036   5.912 -1.0184  2.5789 -1.4209
   12PVA    O14 2006   2.906   7.559   5.849  0.1298 -0.0742 -0.0616
   12PVA    H82 2007   2.982   7.595   5.801 -0.2718 -1.9706 -2.3125
   12PVA    C42 2008   2.659   7.582   5.858  0.1255 -0.0477 -0.0045
   12PVA    H83 2009   2.633   7.504   5.786 -0.7844 -0.9211  1.2418
   12PVA    H84 2010   2.579   7.656   5.845  1.2194  0.7357 -3.2446
   12PVA    C43 2011   2.643   7.519   5.993  0.0675  0.0708 -0.5069
   12PVA    H85 2012   2.672   7.591   6.071 -4.8018  1.4729  0.3687
   12PVA    H86 2013   2.707   7.431   5.996 -0.0533  0.0059  1.0643
   12PVA    C44 2014   2.501   7.473   6.032 -0.2374 -1.2555 -0.5078
   12PVA    H87 2015   2.450   7.422   5.949  0.4457  0.3880 -1.9972
   12PVA    O15 2016   2.441   7.598   6.062  0.3032 -0.6882 -0.7102
   12PVA    H88 2017   2.355   7.578   6.021 -0.4447 -1.9626  1.2990
   12PVA    C45 2018   2.493   7.378   6.149 -0.2954 -0.1919 -0.3971
   12PVA    H89 2019   2.558   7.411   6.231  0.7430 -0.7319 -0.9820
   12PVA    H90 2020   2.525   7.281   6.108  2.5232  1.6062 -2.8448
   12PVA    C46 2021   2.364   7.339   6.233 -1.1278  0.2937  0.1514
   12PVA    H91 2022   2.299   7.279   6.167  0.1450  0.4395 -1.2988
   12PVA    H92 2023   2.305   7.429   6.252 -2.6254 -1.4477  5.2315
   12PVA    C47 2024   2.375   7.255   6.371 -0.6665 -1.3210  1.2311
   12PVA    H93 2025   2.410   7.345   6.423 -0.7730  0.7420 -1.9831
   12PVA    O16 2026   2.456   7.142   6.352  0.1413 -0.8746 -0.1398
   12PVA    H94 2027   2.480   7.122   6.444 -0.5995  0.7069  0.4287
   12PVA    C48 2028   2.240   7.221   6.432 -0.6521 -0.4182  0.1219
   12PVA    H95 2029   2.189   7.317   6.449  1.7876  1.0626 -0.5277
   12PVA    H96 2030   2.187   7.156   6.362 -1.0486  1.5037 -1.4590
   12PVA    C49 2031   2.232   7.157   6.575  0.6416  0.3037  0.4280
   12PVA    H97 2032   2.226   7.237   6.651  6.2095  0.3620  1.2185
   12PVA    H98 2033   2.330   7.110   6.591  1.6161  2.9183  3.1196
   12PVA    C50 2034   2.110   7.067   6.618 -0.1860 -0.1219  0.4063
   12PVA    H99 2035   2.076   7.000   6.539 -0.0584  1.6068 -1.1904
   12PVA    O17 2036   2.170   6.981   6.719 -0.0433 -0.0920  0.6677
   12PVA   H100 2037   2.207   6.917   6.655 -1.6789  0.3503 -0.8030
   12PVA    C51 2038   1.972   7.134   6.678  0.5826  0.2162 -0.1472
   12PVA   H101 2039   1.981   7.212   6.755 -3.2365  0.1545  0.5545
   12PVA   H102 2040   1.929   7.187   6.592  1.5945 -1.7869 -1.9880
   13PVA     C1 2041   3.477   2.455   1.504  0.2167 -0.3531  0.5507
   13PVA     H1 2042   3.518   2.425   1.601 -0.6493 -1.6762  0.5483
   13PVA     H2 2043   3.405   2.529   1.542 -0.6634 -2.9515  4.5367
   13PVA     C2 2044   3.596   2.539   1.429  0.5275  0.8350  0.6691
   13PVA     H3 2045   3.553   2.610   1.358 -3.7607 -1.0099  1.0933
   13PVA     O1 2046   3.678   2.442   1.364 -0.7384  0.9368  0.5641
   13PVA     H4 2047   3.728   2.397   1.435 -1.1619  1.5635  1.2751
   13PVA     C3 2048   3.682   2.609   1.533  0.4368 -1.0006 -1.1143
   13PVA     H5 2049   3.789   2.623   1.510 -0.0112  2.7905 -1.5707
   13PVA     H6 2050   3.676   2.541   1.618  0.8077 -2.0163 -1.8725
   13PVA     C4 2051   3.632   2.759   1.567 -0.2592  0.6046  0.4807
   13PVA     H7 2052   3.588   2.796   1.474 -0.9777 -2.4460 -0.5278
   13PVA     H8 2053   3.546   2.748   1.635  1.7440 -1.3891  2.8824
   13PVA     C5 2054   3.751   2.846   1.620  0.7491 -0.5399  0.0748
   13PVA     H9 2055   3.829   2.857   1.544  1.8003 -2.1587  0.8613
   13PVA     O2 2056   3.805   2.760   1.716 -1.0102  0.0625  0.9943
   13PVA    H10 2057   3.736   2.692   1.720 -2.0746  0.7212 -2.5133
   13PVA     C6 2058   3.711   2.981   1.687 -0.0966  0.6067  0.1346
   13PVA    H11 2059   3.781   3.005   1.768 -0.4345 -0.5880  0.8006
   13PVA    H12 2060   3.621   2.964   1.747 -1.5204 -1.0440 -2.3020
   13PVA     C7 2061   3.695   3.110   1.602 -0.9373 -0.4050  0.9453
   13PVA    H13 2062   3.619   3.172   1.652 -1.2492 -0.8677  1.0495
   13PVA    H14 2063   3.648   3.071   1.511 -0.9250 -3.0572  1.9967
   13PVA     C8 2064   3.826   3.196   1.591 -1.4413 -1.3875  0.6105
   13PVA    H15 2065   3.911   3.128   1.577  1.7596  0.4928  7.0188
   13PVA     O3 2066   3.837   3.261   1.715  0.9793 -0.3238 -0.9085
   13PVA    H16 2067   3.898   3.336   1.701 -0.2761  1.4596  2.1255
   13PVA     C9 2068   3.823   3.306   1.491  0.1944 -0.6187  0.1046
   13PVA    H17 2069   3.756   3.273   1.411  2.2968  1.1529 -2.5421
   13PVA    H18 2070   3.761   3.391   1.523  0.0552 -0.2099 -1.1974
   13PVA    C10 2071   3.959   3.340   1.423  0.9865 -0.4406  0.1122
   13PVA    H19 2072   4.009   3.243   1.414  5.3538  1.1451  3.5803
   13PVA    H20 2073   3.954   3.376   1.320  3.8260  3.0898  1.0018
   13PVA    C11 2074   4.030   3.443   1.504 -0.9437  0.6473  1.7368
   13PVA    H21 2075   4.004   3.541   1.460  0.3812  0.7666  1.1678
   13PVA     O4 2076   3.992   3.461   1.636 -0.0200 -0.6320 -0.1247
   13PVA    H22 2077   4.033   3.545   1.664 -3.9045  0.5996  2.7144
   13PVA    C12 2078   4.175   3.420   1.470  0.1445 -1.0836  0.3289
   13PVA    H23 2079   4.239   3.471   1.543  3.0921 -0.3559 -2.5612
   13PVA    H24 2080   4.199   3.316   1.496  3.9860 -0.3969  0.0008
   13PVA    C13 2081   4.229   3.457   1.326  0.1545 -0.7604 -0.5189
   13PVA    H25 2082   4.170   3.518   1.256 -2.2059 -1.6913  0.5483
   13PVA    H26 2083   4.239   3.361   1.275  2.4410 -0.8523 -0.0028
   13PVA    C14 2084   4.361   3.536   1.322  0.7968  0.2338 -0.8799
   13PVA    H27 2085   4.439   3.468   1.359 -1.0911 -0.6599  1.7393
   13PVA     O5 2086   4.351   3.648   1.411 -1.3207  0.4214  0.8237
   13PVA    H28 2087   4.417   3.711   1.377 -0.0948  0.1635  2.6137
   13PVA    C15 2088   4.388   3.605   1.184 -0.0803 -0.5313 -1.1107
   13PVA    H29 2089   4.307   3.673   1.154  0.9501  1.9332  1.2530
   13PVA    H30 2090   4.378   3.534   1.101 -0.8916  2.4845 -3.8047
   13PVA    C16 2091   4.517   3.685   1.172 -0.6414  0.0677 -0.9388
   13PVA    H31 2092   4.559   3.692   1.273  0.8600 -2.6020 -1.2927
   13PVA    H32 2093   4.599   3.625   1.132  1.8071  0.9585  2.2901
   13PVA    C17 2094   4.512   3.818   1.093  0.5142  0.5317  0.6119
   13PVA    H33 2095   4.446   3.876   1.159 -2.6920  1.4759 -3.0408
   13PVA     O6 2096   4.457   3.789   0.968  0.9033 -0.5995  0.8591
   13PVA    H34 2097   4.381   3.730   0.981  0.4464  0.0994  1.4347
   13PVA    C18 2098   4.641   3.898   1.069  0.0763  0.0538 -0.8239
   13PVA    H35 2099   4.719   3.852   1.007  1.5944  0.5807  0.6471
   13PVA    H36 2100   4.603   3.984   1.012  0.2718 -0.4458 -1.7332
   13PVA    C19 2101   4.715   3.937   1.206 -0.5647 -0.5469  0.1818
   13PVA    H37 2102   4.818   3.967   1.183  0.3186 -1.2001  2.8570
   13PVA    H38 2103   4.706   3.852   1.274 -0.0938  0.8765  2.1290
   13PVA    C20 2104   4.634   4.059   1.264 -0.3337 -0.0644 -0.0090
   13PVA    H39 2105   4.533   4.025   1.286  1.1320 -2.1855  4.7724
   13PVA     O7 2106   4.634   4.168   1.173 -0.6612 -0.2241 -1.0025
   13PVA    H40 2107   4.711   4.174   1.114 -1.0320 -1.3614 -1.6532
   13PVA    C21 2108   4.686   4.104   1.410  0.5043 -1.0937  1.0714
   13PVA    H41 2109   4.793   4.126   1.405  0.7590 -1.9534 -5.5522
   13PVA    H42 2110   4.667   4.028   1.487 -0.4655  0.6617  2.6607
   13PVA    C22 2111   4.603   4.231   1.456 -0.2759  0.3777 -0.0183
   13PVA    H43 2112   4.642   4.256   1.556 -0.9725 -2.5089  1.0873
   13PVA    H44 2113   4.621   4.321   1.396  0.1891 -2.7199 -5.1003
   13PVA    C23 2114   4.449   4.233   1.463 -0.3471  0.3620 -0.7400
   13PVA    H45 2115   4.408   4.205   1.366  2.0922 -1.3231 -1.3722
   13PVA     O8 2116   4.414   4.138   1.571  0.3260 -0.4551 -0.0498
   13PVA    H46 2117   4.424   4.181   1.657 -1.5989 -2.6153  1.3966
   13PVA    C24 2118   4.378   4.358   1.516  0.4334  0.4159 -0.6537
   13PVA    H47 2119   4.284   4.328   1.564  2.9820 -3.0714  2.7846
   13PVA    H48 2120   4.438   4.393   1.601 -0.7159 -2.2023  1.4074
   13PVA    C25 2121   4.346   4.458   1.400 -0.1080  0.0035  0.1015
   13PVA    H49 2122   4.299   4.395   1.324  3.1237 -2.7672  0.1667
   13PVA    H50 2123   4.431   4.496   1.343 -1.4894 -0.3219 -2.3118
   13PVA    C26 2124   4.249   4.573   1.442 -0.0664 -0.2377  0.3184
   13PVA    H51 2125   4.157   4.550   1.387  0.4938  1.3460 -1.4079
   13PVA     O9 2126   4.234   4.567   1.582 -0.6173  0.3739 -0.3793
   13PVA    H52 2127   4.151   4.523   1.606  0.1812 -0.0267  1.8611
   13PVA    C27 2128   4.303   4.710   1.404 -0.3545 -0.9550  1.9597
   13PVA    H53 2129   4.224   4.781   1.431 -0.5519  0.3825 -1.5989
   13PVA    H54 2130   4.393   4.744   1.456 -1.2067  1.1484  2.1648
   13PVA    C28 2131   4.324   4.733   1.253  0.1183 -0.5749 -0.8349
   13PVA    H55 2132   4.411   4.677   1.216  0.3025  0.2958 -1.7976
   13PVA    H56 2133   4.240   4.696   1.193  2.1126 -4.3700 -1.5935
   13PVA    C29 2134   4.353   4.878   1.209  1.5089  0.3818 -1.0731
   13PVA    H57 2135   4.259   4.932   1.225  2.8845  2.8921 -1.0466
   13PVA    O10 2136   4.372   4.883   1.064  0.6417  0.3819 -0.1489
   13PVA    H58 2137   4.466   4.910   1.063  1.5122 -2.2438  1.4123
   13PVA    C30 2138   4.458   4.963   1.290 -0.5259 -0.9547 -0.0673
   13PVA    H59 2139   4.448   4.954   1.399 -1.5273  0.6997  0.0109
   13PVA    H60 2140   4.431   5.067   1.266  1.6943 -0.7010 -1.7026
   13PVA    C31 2141   4.603   4.940   1.253 -0.6052  1.7254  0.6611
   13PVA    H61 2142   4.620   4.834   1.235  0.4452  1.7206  1.6069
   13PVA    H62 2143   4.617   5.006   1.166 -4.0951  1.9090  0.0787
   13PVA    C32 2144   4.702   4.992   1.358 -0.4342 -0.9606 -0.4106
   13PVA    H63 2145   4.672   4.977   1.462  3.5687  1.4978  1.3077
   13PVA    O11 2146   4.688   5.138   1.339  0.4220 -0.0638  0.0293
   13PVA    H64 2147   4.672   5.193   1.417 -2.3916  0.2562 -0.6759
   13PVA    C33 2148   4.860   4.950   1.345  0.5028 -0.4282  0.1095
   13PVA    H65 2149   4.888   5.006   1.255 -1.4830  3.1935  1.5207
   13PVA    H66 2150   4.865   4.842   1.328 -0.2393 -0.4524  0.0075
   13PVA    C34 2151   4.957   4.996   1.459  0.2744  0.3223 -0.1418
   13PVA    H67 2152   4.954   5.105   1.468  0.0428  0.2399  0.8726
   13PVA    H68 2153   4.937   4.966   1.562  2.6101  0.9806  0.5454
   13PVA    C35 2154   5.091   4.936   1.426 -0.6276 -0.3031 -0.0581
   13PVA    H69 2155   5.120   4.965   1.324  3.1824  0.1699  1.0043
   13PVA    O12 2156   5.101   4.795   1.431  1.4877  0.2546 -0.4573
   13PVA    H70 2157   5.193   4.763   1.438  0.6634 -1.9753  1.7585
   13PVA    C36 2158   5.211   4.978   1.506 -0.5834 -0.7237  0.6951
   13PVA    H71 2159   5.242   5.082   1.489 -0.3350 -1.1129 -1.5753
   13PVA    H72 2160   5.302   4.932   1.464  0.6105  0.9605  1.3021
   13PVA    C37 2161   5.220   4.936   1.661  0.7314  1.1424 -0.3165
   13PVA    H73 2162   5.182   4.835   1.682  1.2556  1.6380  3.7570
   13PVA    H74 2163   5.158   4.990   1.733 -0.2091  2.7751 -2.2557
   13PVA    C38 2164   5.369   4.925   1.719 -1.1273 -0.2953  0.0972
   13PVA    H75 2165   5.425   5.016   1.692  1.0319 -2.3872 -3.0904
   13PVA    O13 2166   5.413   4.807   1.656 -0.7000 -0.4073 -0.0262
   13PVA    H76 2167   5.509   4.818   1.664 -0.4457 -0.8733 -1.9698
   13PVA    C39 2168   5.385   4.904   1.875  0.6083  0.0371 -0.2001
   13PVA    H77 2169   5.487   4.938   1.896 -0.3721  1.9043  1.9366
   13PVA    H78 2170   5.388   4.795   1.884  1.3374 -0.1202 -1.8475
   13PVA    C40 2171   5.275   4.953   1.977 -0.4780  0.8550  0.8823
   13PVA    H79 2172   5.279   5.059   2.008 -1.7802  0.0643  4.2547
   13PVA    H80 2173   5.174   4.927   1.941 -0.9806  0.0489  2.7383
   13PVA    C41 2174   5.296   4.880   2.115 -0.0165 -0.2173  1.3617
   13PVA    H81 2175   5.295   4.771   2.111  2.4732 -0.3633  2.7609
   13PVA    O14 2176   5.426   4.914   2.167  0.4051  0.2819 -1.2443
   13PVA    H82 2177   5.475   4.961   2.098 -1.1397  2.6907 -0.8194
   13PVA    C42 2178   5.179   4.915   2.219  0.3114  1.1115 -0.0482
   13PVA    H83 2179   5.088   4.904   2.159  1.1831  0.2670 -1.2557
   13PVA    H84 2180   5.180   4.847   2.305 -1.5829  0.8113 -0.2246
   13PVA    C43 2181   5.178   5.057   2.265  0.4251 -0.6428  0.3079
   13PVA    H85 2182   5.154   5.105   2.170 -1.2126 -1.2256  0.3914
   13PVA    H86 2183   5.282   5.078   2.294  1.5521 -4.5083 -0.4671
   13PVA    C44 2184   5.080   5.106   2.370  0.2874 -0.4532  0.6577
   13PVA    H87 2185   4.992   5.042   2.357 -0.9221  1.5562 -2.0536
   13PVA    O15 2186   5.053   5.238   2.324  0.2167  0.7113  0.2425
   13PVA    H88 2187   4.957   5.249   2.337  0.4364  0.3666  2.5305
   13PVA    C45 2188   5.148   5.123   2.519  0.2085  0.4381  0.4191
   13PVA    H89 2189   5.219   5.041   2.535  0.4152  0.5271 -0.0236
   13PVA    H90 2190   5.065   5.109   2.589 -0.9330 -2.4773 -1.3268
   13PVA    C46 2191   5.224   5.254   2.553 -0.5530 -0.3792 -0.0945
   13PVA    H91 2192   5.318   5.271   2.499  2.7739  3.7896  5.8153
   13PVA    H92 2193   5.153   5.336   2.539 -2.5770 -2.5005 -3.6247
   13PVA    C47 2194   5.275   5.251   2.702 -0.1343 -0.1556 -0.4065
   13PVA    H93 2195   5.300   5.148   2.729 -3.3720 -0.9099  0.1858
   13PVA    O16 2196   5.378   5.339   2.731 -0.6750 -0.9655  0.0727
   13PVA    H94 2197   5.365   5.410   2.665 -0.3049 -2.1879 -1.3898
   13PVA    C48 2198   5.160   5.286   2.812  0.6115 -0.4351  0.8232
   13PVA    H95 2199   5.148   5.394   2.822  2.3914 -0.2787  1.6507
   13PVA    H96 2200   5.068   5.244   2.769  0.8126  0.1839 -0.2365
   13PVA    C49 2201   5.167   5.232   2.952 -0.5696  0.6007  0.6051
   13PVA    H97 2202   5.157   5.123   2.938 -1.2009  0.6488  0.6407
   13PVA    H98 2203   5.078   5.253   3.013 -2.9103 -0.5026 -2.2135
   13PVA    C50 2204   5.289   5.279   3.043  0.5030  0.4275  1.1940
   13PVA    H99 2205   5.287   5.388   3.058  2.5740  0.7257 -0.3062
   13PVA    O17 2206   5.398   5.230   2.973  0.1527 -0.4832  0.7310
   13PVA   H100 2207   5.409   5.279   2.889 -1.6452  1.6658  1.6416
   13PVA    C51 2208   5.278   5.225   3.180  0.6153 -0.0529  0.4384
   13PVA   H101 2209   5.298   5.117   3.184 -1.0878 -0.4020  0.2406
   13PVA   H102 2210   5.172   5.219   3.204  0.9511 -1.3826  1.7175
   14PVA     C1 2211   2.214   6.564   6.076  0.2154  0.2554  0.4202
   14PVA     H1 2212   2.122   6.586   6.021  0.0656 -3.5757 -1.1644
   14PVA     H2 2213   2.216   6.458   6.102 -2.3774 -0.0672 -0.3943
   14PVA     C2 2214   2.340   6.582   5.991  0.2449  0.4442 -0.2713
   14PVA     H3 2215   2.350   6.689   5.969 -1.4893  0.6683 -0.0944
   14PVA     O1 2216   2.450   6.564   6.072 -0.1759  0.0999 -0.0215
   14PVA     H4 2217   2.494   6.489   6.027  0.3405  1.7680 -2.5593
   14PVA     C3 2218   2.346   6.509   5.856 -0.1740  0.3535  0.7414
   14PVA     H5 2219   2.343   6.586   5.778  3.2638 -4.4613 -4.9205
   14PVA     H6 2220   2.246   6.463   5.853 -0.3862  0.8455 -0.1152
   14PVA     C4 2221   2.465   6.420   5.832 -0.2112  0.8495  0.1103
   14PVA     H7 2222   2.558   6.465   5.869  2.1058 -2.7428 -0.7619
   14PVA     H8 2223   2.458   6.332   5.897 -5.3908 -0.7743 -2.1471
   14PVA     C5 2224   2.492   6.359   5.700 -0.5929 -0.4644 -0.1046
   14PVA     H9 2225   2.418   6.285   5.665  1.1087 -1.6861 -1.3067
   14PVA     O2 2226   2.496   6.470   5.605  0.9949  0.3023  0.2880
   14PVA    H10 2227   2.576   6.520   5.629  2.0456 -0.5684 -1.1824
   14PVA     C6 2228   2.620   6.273   5.687  0.6795 -0.6087  0.6315
   14PVA    H11 2229   2.617   6.181   5.748  4.0827 -0.4229  1.2633
   14PVA    H12 2230   2.698   6.337   5.728  0.3240  0.4584 -0.3139
   14PVA     C7 2231   2.648   6.236   5.545 -0.6846  0.9729  0.5096
   14PVA    H13 2232   2.637   6.322   5.478 -2.0627 -0.2269 -0.9282
   14PVA    H14 2233   2.576   6.161   5.508  0.3233 -1.4888  3.2212
   14PVA     C8 2234   2.791   6.161   5.526  0.0920 -0.9084  0.9944
   14PVA    H15 2235   2.793   6.068   5.585  1.7102 -1.1899  0.5210
   14PVA     O3 2236   2.887   6.253   5.571  0.0510  0.8447  0.8260
   14PVA    H16 2237   2.844   6.322   5.625 -1.4930 -1.1506  2.3691
   14PVA     C9 2238   2.825   6.124   5.381  0.2351 -0.2943  0.8430
   14PVA    H17 2239   2.731   6.100   5.328  2.0645  0.4224 -3.0328
   14PVA    H18 2240   2.839   6.225   5.342 -3.5198 -0.0049 -0.1343
   14PVA    C10 2241   2.952   6.029   5.363  0.3236 -0.4842 -0.2110
   14PVA    H19 2242   3.030   6.039   5.439  1.3296 -0.6678 -1.1968
   14PVA    H20 2243   2.909   5.937   5.405  0.5329 -0.2897  0.4336
   14PVA    C11 2244   2.995   6.040   5.214 -0.4420  0.4304 -0.4104
   14PVA    H21 2245   2.894   6.027   5.173 -1.2610  0.3260  1.5182
   14PVA     O4 2246   3.047   6.160   5.171  0.0196  0.6148 -0.2454
   14PVA    H22 2247   2.970   6.215   5.147 -0.8246 -0.9141 -1.2402
   14PVA    C12 2248   3.086   5.931   5.143  0.8450 -1.0972 -0.0908
   14PVA    H23 2249   3.181   5.942   5.197  0.4204  0.6911  0.3834
   14PVA    H24 2250   3.054   5.831   5.174 -0.5925 -0.2833  1.2406
   14PVA    C13 2251   3.109   5.925   4.994  0.2358 -0.5687  0.7270
   14PVA    H25 2252   3.132   6.023   4.950 -1.9731 -0.8886 -1.2567
   14PVA    H26 2253   3.017   5.889   4.947 -1.0540  0.2719  2.4759
   14PVA    C14 2254   3.218   5.828   4.938  0.6424 -0.4793 -0.5917
   14PVA    H27 2255   3.276   5.812   5.030 -2.9467 -3.3066  1.4698
   14PVA     O5 2256   3.312   5.885   4.848 -0.7380 -0.6328  0.5413
   14PVA    H28 2257   3.380   5.815   4.847 -0.5027 -0.4101 -0.7816
   14PVA    C15 2258   3.170   5.685   4.890  0.1411  0.8384 -0.0886
   14PVA    H29 2259   3.116   5.689   4.795  1.9773 -1.0742 -1.2765
   14PVA    H30 2260   3.104   5.647   4.970  1.3404 -0.9083  0.1175
   14PVA    C16 2261   3.274   5.575   4.855 -0.1177  0.6699  0.4996
   14PVA    H31 2262   3.329   5.561   4.949 -0.8747  0.1607  0.8816
   14PVA    H32 2263   3.339   5.618   4.778 -1.3478 -0.3520 -1.1925
   14PVA    C17 2264   3.209   5.446   4.797  0.4530 -0.3821 -0.0777
   14PVA    H33 2265   3.117   5.426   4.852  3.5057 -1.0069  5.4794
   14PVA     O6 2266   3.191   5.464   4.653 -0.1268  0.0887 -0.5700
   14PVA    H34 2267   3.224   5.387   4.604 -1.1200 -0.9720  0.3583
   14PVA    C18 2268   3.304   5.332   4.828 -0.0311 -0.0586 -1.1720
   14PVA    H35 2269   3.387   5.339   4.756  0.5702  0.5825 -0.4396
   14PVA    H36 2270   3.346   5.336   4.930 -0.2535  0.1829 -1.0896
   14PVA    C19 2271   3.230   5.196   4.812  0.3049  0.6724  0.4796
   14PVA    H37 2272   3.122   5.213   4.801  0.7889  3.3672 -0.8148
   14PVA    H38 2273   3.248   5.116   4.885 -1.0275 -0.5876 -0.5200
   14PVA    C20 2274   3.286   5.141   4.681  0.8869  0.2823 -0.5520
   14PVA    H39 2275   3.395   5.148   4.685  0.8485  0.9471 -0.5449
   14PVA     O7 2276   3.260   5.213   4.560  0.2340 -0.5637  0.2401
   14PVA    H40 2277   3.212   5.148   4.506 -0.2423 -2.1316  2.4207
   14PVA    C21 2278   3.271   4.989   4.679 -0.0244 -0.9676 -0.4987
   14PVA    H41 2279   3.161   4.979   4.680 -0.0132 -1.1600 -0.9772
   14PVA    H42 2280   3.307   4.942   4.772  1.4887 -3.0708 -2.0487
   14PVA    C22 2281   3.336   4.895   4.571  0.5856  0.4648  0.1734
   14PVA    H43 2282   3.428   4.875   4.627  1.5959  4.8385  0.4234
   14PVA    H44 2283   3.280   4.801   4.571  1.0483  0.1456 -1.9661
   14PVA    C23 2284   3.350   4.946   4.425  0.0744  0.8103 -0.4003
   14PVA    H45 2285   3.362   4.870   4.347  0.2537  0.0426  0.3655
   14PVA     O8 2286   3.238   5.016   4.399 -0.3654  0.6181 -0.9394
   14PVA    H46 2287   3.246   5.021   4.302  1.7827  0.3049 -0.8132
   14PVA    C24 2288   3.479   5.028   4.389 -0.6622  0.2417 -1.0833
   14PVA    H47 2289   3.469   5.129   4.432 -3.0943 -0.6180  0.5862
   14PVA    H48 2290   3.566   4.997   4.446 -1.7063 -0.7328  0.0336
   14PVA    C25 2291   3.527   5.068   4.244 -0.0801 -0.5855  1.7088
   14PVA    H49 2292   3.623   5.121   4.241 -0.8736  0.8695 -0.7836
   14PVA    H50 2293   3.556   4.979   4.187  0.0454 -1.1860  2.6884
   14PVA    C26 2294   3.430   5.163   4.155  0.1862  0.2448  0.6451
   14PVA    H51 2295   3.409   5.249   4.220  0.3073 -0.2040  1.2777
   14PVA     O9 2296   3.322   5.092   4.097 -0.3615 -0.9339  0.2636
   14PVA    H52 2297   3.246   5.151   4.109 -1.2532 -1.6760 -1.3840
   14PVA    C27 2298   3.504   5.212   4.011  0.6396 -0.4632 -0.6517
   14PVA    H53 2299   3.550   5.127   3.959 -1.5520 -1.1354 -1.6206
   14PVA    H54 2300   3.597   5.269   4.022  1.4339 -1.3030 -2.6046
   14PVA    C28 2301   3.410   5.300   3.933 -0.7048  0.1002  0.2937
   14PVA    H55 2302   3.333   5.230   3.899 -0.8749  0.9482 -1.1379
   14PVA    H56 2303   3.370   5.389   3.983 -0.8698  0.5306 -0.5868
   14PVA    C29 2304   3.458   5.352   3.794  0.2681 -0.6520 -0.2343
   14PVA    H57 2305   3.492   5.270   3.728  0.4216 -0.3453 -0.5382
   14PVA    O10 2306   3.364   5.436   3.743  0.3511 -0.6478  0.1539
   14PVA    H58 2307   3.395   5.529   3.746 -0.0731 -0.5236  2.8675
   14PVA    C30 2308   3.577   5.457   3.821 -1.7498 -0.7341  0.5903
   14PVA    H59 2309   3.666   5.408   3.861  0.9056  2.3708 -1.0591
   14PVA    H60 2310   3.543   5.539   3.886  0.3376  1.1736 -0.6014
   14PVA    C31 2311   3.628   5.515   3.678 -0.9617  0.7733  0.3239
   14PVA    H61 2312   3.536   5.513   3.620  0.0499 -0.8106 -1.3434
   14PVA    H62 2313   3.693   5.437   3.635 -0.3707  0.4761  1.6706
   14PVA    C32 2314   3.703   5.649   3.671 -1.1321  1.0013  0.3974
   14PVA    H63 2315   3.644   5.722   3.727 -0.2185  2.4072 -0.4381
   14PVA    O11 2316   3.824   5.638   3.753 -0.3892  0.2442  0.4439
   14PVA    H64 2317   3.815   5.585   3.835  2.1165  1.1754  1.4295
   14PVA    C33 2318   3.735   5.706   3.534  0.3488 -0.3348  0.1874
   14PVA    H65 2319   3.640   5.709   3.480  0.4463 -0.4495  0.0071
   14PVA    H66 2320   3.773   5.630   3.464 -2.2612  0.8398 -2.7322
   14PVA    C34 2321   3.803   5.846   3.538  0.1322  1.6233  0.2771
   14PVA    H67 2322   3.729   5.909   3.589 -2.4130 -0.2893 -0.8552
   14PVA    H68 2323   3.903   5.851   3.582 -0.8524 -0.1619  2.9209
   14PVA    C35 2324   3.803   5.907   3.404 -0.4023 -0.0642  1.2995
   14PVA    H69 2325   3.859   5.841   3.337  0.7577 -0.9189  3.0421
   14PVA    O12 2326   3.664   5.916   3.355 -0.0504 -0.3425  0.1227
   14PVA    H70 2327   3.642   5.969   3.434  0.4316 -0.0668  0.0765
   14PVA    C36 2328   3.884   6.041   3.401  0.3426  0.1718 -0.1922
   14PVA    H71 2329   3.818   6.119   3.362  1.5022  0.1104 -2.4725
   14PVA    H72 2330   3.915   6.070   3.502  1.4091  0.4335 -0.5782
   14PVA    C37 2331   4.009   6.021   3.307  0.2554  0.4299 -1.5090
   14PVA    H73 2332   3.988   5.991   3.203  1.5746 -4.2212 -0.6733
   14PVA    H74 2333   4.067   5.944   3.359 -2.0431 -2.7421 -3.2356
   14PVA    C38 2334   4.096   6.157   3.300 -0.9381 -0.3336 -0.5638
   14PVA    H75 2335   4.126   6.186   3.401  0.4403 -3.2446 -0.0463
   14PVA    O13 2336   4.016   6.267   3.246 -0.7682  0.7029  0.1012
   14PVA    H76 2337   4.096   6.318   3.222 -1.2066  0.2325 -2.6982
   14PVA    C39 2338   4.221   6.131   3.219  0.0881  0.9168 -0.2537
   14PVA    H77 2339   4.200   6.102   3.115 -0.7993  0.0189  0.1592
   14PVA    H78 2340   4.293   6.213   3.222  2.0021 -0.5436 -2.6868
   14PVA    C40 2341   4.297   5.992   3.260 -0.3916 -1.3128  1.2767
   14PVA    H79 2342   4.222   5.919   3.225 -0.9537  0.5019 -1.7134
   14PVA    H80 2343   4.301   5.974   3.368 -0.4948  1.2234  1.7517
   14PVA    C41 2344   4.429   5.982   3.173  0.3994  0.1493 -0.1288
   14PVA    H81 2345   4.405   5.989   3.066 -1.9154  0.1020  0.3415
   14PVA    O14 2346   4.526   6.069   3.214 -0.4374  0.9330 -0.0130
   14PVA    H82 2347   4.605   6.031   3.170 -0.5614 -0.3344  0.8030
   14PVA    C42 2348   4.481   5.834   3.184 -1.3086 -0.4063 -0.3269
   14PVA    H83 2349   4.410   5.770   3.131 -0.3500 -3.0272  1.3755
   14PVA    H84 2350   4.581   5.838   3.138 -0.3055  3.7042  1.7532
   14PVA    C43 2351   4.499   5.765   3.328 -0.9987 -0.2467  0.6599
   14PVA    H85 2352   4.399   5.753   3.372 -1.9266  0.4292 -1.1690
   14PVA    H86 2353   4.568   5.829   3.385  2.8679 -0.2156 -3.4987
   14PVA    C44 2354   4.559   5.626   3.332  0.1240 -1.3807 -1.4264
   14PVA    H87 2355   4.641   5.649   3.263 -0.9983  1.5453 -1.9307
   14PVA    O15 2356   4.466   5.538   3.276 -0.6524  0.6138 -0.3089
   14PVA    H88 2357   4.420   5.497   3.351 -0.3597 -3.2396 -1.9973
   14PVA    C45 2358   4.627   5.586   3.469  0.9169 -0.3728  0.3411
   14PVA    H89 2359   4.707   5.661   3.470  1.3621 -0.6639 -2.8807
   14PVA    H90 2360   4.570   5.598   3.561  2.8286 -2.0206  1.8122
   14PVA    C46 2361   4.694   5.450   3.460  0.4428 -0.4022  0.2359
   14PVA    H91 2362   4.626   5.364   3.449  0.6003 -1.3699  4.8020
   14PVA    H92 2363   4.736   5.446   3.359  0.1781  2.2147 -0.0397
   14PVA    C47 2364   4.804   5.395   3.556  1.5735 -0.1399  0.5868
   14PVA    H93 2365   4.890   5.459   3.534  1.2132 -0.0469 -0.5953
   14PVA    O16 2366   4.778   5.427   3.686 -0.8134 -1.0893  0.3106
   14PVA    H94 2367   4.869   5.414   3.718 -0.1226  2.7506  0.4529
   14PVA    C48 2368   4.829   5.249   3.514 -0.4613  1.1343  0.0463
   14PVA    H95 2369   4.735   5.197   3.493  1.2277 -1.8942 -0.5564
   14PVA    H96 2370   4.893   5.238   3.426  0.1809 -2.7636  0.8136
   14PVA    C49 2371   4.913   5.164   3.618  0.6326 -0.7234 -0.4156
   14PVA    H97 2372   4.898   5.057   3.598 -0.0222 -0.3433 -2.1705
   14PVA    H98 2373   4.857   5.174   3.712 -0.4771 -5.4629 -0.3444
   14PVA    C50 2374   5.059   5.215   3.636  0.6131 -0.2070  0.4273
   14PVA    H99 2375   5.112   5.144   3.701 -0.7983  0.7447  2.7374
   14PVA    O17 2376   5.045   5.340   3.707  0.5809  0.3520  0.0151
   14PVA   H100 2377   5.135   5.375   3.719  0.5591 -0.3800  3.4097
   14PVA    C51 2378   5.142   5.238   3.500  0.2452  0.3753  0.3854
   14PVA   H101 2379   5.130   5.136   3.459 -1.1628  1.4394 -2.0862
   14PVA   H102 2380   5.105   5.302   3.419  2.4736  4.4038  2.2299
   15PVA     C1 2381   2.390   6.768   6.440 -0.5643 -0.4553 -0.7090
   15PVA     H1 2382   2.396   6.821   6.536 -1.0283  0.5564 -1.2219
   15PVA     H2 2383   2.366   6.665   6.468 -1.9921 -0.0745 -0.4542
   15PVA     C2 2384   2.521   6.756   6.361 -0.4640  0.8461 -0.4535
   15PVA     H3 2385   2.508   6.682   6.280  0.6798 -0.4275  0.4914
   15PVA     O1 2386   2.639   6.739   6.441 -0.3814  0.6542  0.2156
   15PVA     H4 2387   2.631   6.673   6.512 -1.7824 -0.2766 -0.7498
   15PVA     C3 2388   2.563   6.875   6.271 -0.5118  0.5219  0.1851
   15PVA     H5 2389   2.625   6.936   6.337 -2.7532  2.6824  0.4039
   15PVA     H6 2390   2.473   6.921   6.229 -1.8221 -1.1715  1.0158
   15PVA     C4 2391   2.665   6.852   6.155 -0.1277  0.5089 -0.0738
   15PVA     H7 2392   2.767   6.831   6.190 -1.0287 -2.7576  0.9912
   15PVA     H8 2393   2.635   6.763   6.099  0.0692 -2.3814  3.9480
   15PVA     C5 2394   2.687   6.981   6.079 -0.0288 -1.1810 -0.5005
   15PVA     H9 2395   2.705   7.047   6.164  0.4463 -1.4508 -0.3937
   15PVA     O2 2396   2.576   7.024   6.002  0.1090 -0.1289  0.7897
   15PVA    H10 2397   2.572   7.121   6.006 -2.6150  0.0229 -2.1038
   15PVA     C6 2398   2.813   6.996   5.983  1.5160 -0.5498  0.3587
   15PVA    H11 2399   2.898   6.940   6.026  1.3436 -4.0893 -3.3030
   15PVA    H12 2400   2.796   6.933   5.895  2.9858 -0.5349  0.0267
   15PVA     C7 2401   2.846   7.146   5.935  0.1235  0.6258  0.1367
   15PVA    H13 2402   2.935   7.185   5.985 -0.2525  0.6303  0.8230
   15PVA    H14 2403   2.766   7.220   5.949 -0.7367 -0.4106  0.8838
   15PVA     C8 2404   2.868   7.161   5.778  0.9662 -1.3312  1.0914
   15PVA    H15 2405   2.786   7.110   5.727 -3.8134  2.1380  4.3203
   15PVA     O3 2406   2.855   7.298   5.734  0.3008 -1.1198  0.7638
   15PVA    H16 2407   2.830   7.359   5.805 -1.9955  0.8736 -1.5979
   15PVA     C9 2408   3.000   7.119   5.740 -0.5124  0.0707 -0.3432
   15PVA    H17 2409   3.072   7.169   5.806  0.2047 -3.0294  1.3830
   15PVA    H18 2410   3.029   7.176   5.650 -1.9756 -0.1259 -0.9693
   15PVA    C10 2411   3.041   6.976   5.709  1.3172  0.0079 -1.0536
   15PVA    H19 2412   3.144   6.965   5.743  0.5387 -2.2095  0.8481
   15PVA    H20 2413   2.978   6.925   5.783  0.7981  4.0474  1.6197
   15PVA    C11 2414   3.001   6.939   5.568 -0.1343  0.1396  1.7313
   15PVA    H21 2415   3.041   7.023   5.510 -0.9778 -0.3062  0.4442
   15PVA     O4 2416   2.855   6.940   5.549  0.0160 -0.1189 -0.0428
   15PVA    H22 2417   2.837   6.933   5.454  1.3605  3.4216 -0.7318
   15PVA    C12 2418   3.066   6.817   5.513 -0.3649 -0.0605 -0.3856
   15PVA    H23 2419   3.171   6.825   5.483  0.8563 -2.2097  2.8046
   15PVA    H24 2420   3.069   6.741   5.592 -3.5298  0.4008  0.3442
   15PVA    C13 2421   3.004   6.745   5.388 -0.2854  0.6669 -0.5587
   15PVA    H25 2422   3.056   6.789   5.303  1.1027 -0.4083 -0.3088
   15PVA    H26 2423   2.898   6.758   5.363 -1.1221  0.8980  2.6282
   15PVA    C14 2424   3.021   6.587   5.395  0.5051 -0.1397 -0.3284
   15PVA    H27 2425   3.008   6.562   5.501  2.1243 -2.7421 -0.6438
   15PVA     O5 2426   3.150   6.556   5.386  0.2762 -0.3820 -0.0694
   15PVA    H28 2427   3.161   6.468   5.427 -2.4339 -2.3211 -3.0507
   15PVA    C15 2428   2.942   6.488   5.303 -0.1830 -0.2933  0.4845
   15PVA    H29 2429   2.998   6.484   5.209  1.4650  1.7396  1.2923
   15PVA    H30 2430   2.957   6.389   5.347  1.9070 -0.1030  0.2814
   15PVA    C16 2431   2.790   6.507   5.293  1.1027 -0.0481 -0.3141
   15PVA    H31 2432   2.761   6.449   5.381 -0.8811  1.4496  0.1018
   15PVA    H32 2433   2.751   6.605   5.324 -1.1275 -1.5126  1.7859
   15PVA    C17 2434   2.736   6.449   5.161  0.1472 -0.1401  1.2312
   15PVA    H33 2435   2.692   6.531   5.103 -2.9898 -2.2490  0.4285
   15PVA     O6 2436   2.824   6.364   5.089  1.2029 -0.4757  0.6005
   15PVA    H34 2437   2.766   6.304   5.038 -0.2469  0.3931  1.1562
   15PVA    C18 2438   2.600   6.370   5.181  0.2532  0.4096  0.3154
   15PVA    H35 2439   2.616   6.281   5.243 -1.0576 -0.8947 -1.1229
   15PVA    H36 2440   2.582   6.336   5.078 -0.2038 -1.1093  0.8769
   15PVA    C19 2441   2.485   6.445   5.261  0.5200  0.4181 -0.4522
   15PVA    H37 2442   2.531   6.482   5.354  1.4491  1.8237 -1.4287
   15PVA    H38 2443   2.447   6.538   5.219  0.5748  1.5564  1.8592
   15PVA    C20 2444   2.354   6.373   5.303 -0.0443 -0.1854  0.4091
   15PVA    H39 2445   2.374   6.282   5.361  1.9069  0.3681  0.6945
   15PVA     O7 2446   2.294   6.458   5.392 -0.1383 -0.7626  0.5083
   15PVA    H40 2447   2.348   6.452   5.473 -0.2540 -3.6697  0.4923
   15PVA    C21 2448   2.262   6.352   5.177  0.5115 -0.7432 -0.2012
   15PVA    H41 2449   2.314   6.304   5.093  1.5555  4.0435 -2.6231
   15PVA    H42 2450   2.239   6.452   5.139  1.6834 -0.5630 -0.4695
   15PVA    C22 2451   2.138   6.272   5.212 -0.4241 -0.0059 -0.2860
   15PVA    H43 2452   2.171   6.175   5.250  1.1842  0.5715 -0.1283
   15PVA    H44 2453   2.088   6.330   5.290 -0.3081  1.6368 -1.3722
   15PVA    C23 2454   2.035   6.243   5.099  0.0903 -0.0125 -1.3983
   15PVA    H45 2455   2.077   6.203   5.006 -1.8682  0.6460 -2.6470
   15PVA     O8 2456   1.975   6.371   5.066 -0.3998  0.5141 -1.1063
   15PVA    H46 2457   2.042   6.440   5.083 -0.2866  0.6291 -1.9767
   15PVA    C24 2458   1.920   6.140   5.132 -0.0990  0.7568  0.6325
   15PVA    H47 2459   1.867   6.163   5.226 -5.5827  2.1635 -2.3696
   15PVA    H48 2460   1.968   6.041   5.134  1.1766  1.1650 -2.8919
   15PVA    C25 2461   1.802   6.141   5.024  0.2395  0.5388  0.4128
   15PVA    H49 2462   1.863   6.158   4.935  2.0691  1.2094  1.7421
   15PVA    H50 2463   1.751   6.049   4.993 -4.1658  1.5688  3.5954
   15PVA    C26 2464   1.681   6.235   5.053 -1.1476  0.6775 -0.1246
   15PVA    H51 2465   1.594   6.178   5.016 -2.1010  1.6903  0.4817
   15PVA     O9 2466   1.698   6.361   4.999 -0.2971 -0.5995  0.0090
   15PVA    H52 2467   1.790   6.371   5.029  0.7847 -2.8588 -2.1386
   15PVA    C27 2468   1.650   6.251   5.198 -0.7866  0.6879 -0.1540
   15PVA    H53 2469   1.741   6.296   5.238  2.6466  1.1908 -6.9996
   15PVA    H54 2470   1.635   6.151   5.240  1.8896 -0.4477 -1.6830
   15PVA    C28 2471   1.522   6.339   5.215  0.9281  0.8415  0.8446
   15PVA    H55 2472   1.541   6.444   5.188  0.0712  0.2397 -2.6038
   15PVA    H56 2473   1.445   6.316   5.140 -0.0364  1.0209  1.7687
   15PVA    C29 2474   1.460   6.342   5.361 -0.7351 -0.0006  0.3514
   15PVA    H57 2475   1.354   6.368   5.347 -0.9077 -0.5636  0.5729
   15PVA    O10 2476   1.461   6.211   5.410 -0.1134  0.4800 -0.2501
   15PVA    H58 2477   1.424   6.146   5.348 -0.1127  0.2915 -0.0518
   15PVA    C30 2478   1.521   6.435   5.470  0.6590  0.1119 -0.2232
   15PVA    H59 2479   1.504   6.540   5.441  0.7321  0.4541  0.9379
   15PVA    H60 2480   1.623   6.396   5.471  2.2734  3.9336  0.9945
   15PVA    C31 2481   1.471   6.410   5.619  1.1441 -0.2588  0.0863
   15PVA    H61 2482   1.526   6.330   5.669  0.4422  0.9831  3.0866
   15PVA    H62 2483   1.363   6.395   5.605  0.4400  4.3374 -1.1872
   15PVA    C32 2484   1.477   6.533   5.713 -0.6850 -0.6017 -0.0609
   15PVA    H63 2485   1.436   6.619   5.659 -3.8580 -2.6164 -1.1656
   15PVA    O11 2486   1.613   6.552   5.753  0.2985  1.1161  0.0223
   15PVA    H64 2487   1.619   6.599   5.838  1.5810 -0.0819  0.6452
   15PVA    C33 2488   1.405   6.536   5.855 -0.0009 -0.1021  0.5870
   15PVA    H65 2489   1.448   6.462   5.924  1.2423  0.2380  0.2061
   15PVA    H66 2490   1.420   6.631   5.907  4.9785  4.6795 -7.3935
   15PVA    C34 2491   1.243   6.523   5.841 -0.7290 -0.6032 -0.0969
   15PVA    H67 2492   1.189   6.607   5.795  0.8360 -0.0422 -0.9710
   15PVA    H68 2493   1.221   6.439   5.775  1.2196 -1.9510  0.8847
   15PVA    C35 2494   1.169   6.499   5.974 -0.6887 -1.1686 -0.0668
   15PVA    H69 2495   1.193   6.576   6.048 -1.0388 -2.5500  1.5436
   15PVA    O12 2496   1.221   6.385   6.045  0.2295 -0.8225  0.1362
   15PVA    H70 2497   1.187   6.387   6.136 -3.5902  0.1797 -1.1268
   15PVA    C36 2498   1.017   6.502   5.983  0.8318 -0.2016 -0.4878
   15PVA    H71 2499   0.995   6.405   5.938  2.3337 -0.7869 -0.0034
   15PVA    H72 2500   0.988   6.484   6.087  3.1888  0.0791  0.2890
   15PVA    C37 2501   0.930   6.618   5.920  0.0347  0.4552 -0.4937
   15PVA    H73 2502   0.967   6.632   5.818  0.0755 -0.7028 -0.6493
   15PVA    H74 2503   0.957   6.709   5.974  0.6341 -0.5373  0.9324
   15PVA    C38 2504   0.784   6.595   5.917  0.1400  0.7075 -0.0467
   15PVA    H75 2505   0.748   6.495   5.893 -1.7389  2.4064 -6.2976
   15PVA    O13 2506   0.742   6.632   6.048  0.2779  0.0175  0.6387
   15PVA    H76 2507   0.687   6.561   6.088 -0.2476 -0.3397 -0.6805
   15PVA    C39 2508   0.708   6.680   5.811 -0.6856  0.7658 -1.2926
   15PVA    H77 2509   0.746   6.669   5.709  1.8025 -2.2747 -0.1956
   15PVA    H78 2510   0.731   6.782   5.846 -0.1713 -0.6250  2.9739
   15PVA    C40 2511   0.548   6.662   5.819  0.6383 -0.1960  0.0031
   15PVA    H79 2512   0.518   6.690   5.920 -0.8268 -1.0710 -0.1646
   15PVA    H80 2513   0.507   6.562   5.800  0.3199  0.0693 -0.7072
   15PVA    C41 2514   0.481   6.749   5.702  0.8114 -0.9263 -0.5521
   15PVA    H81 2515   0.525   6.849   5.718  1.4918 -1.6504  2.9950
   15PVA    O14 2516   0.502   6.694   5.571 -0.3667 -0.4760 -0.1416
   15PVA    H82 2517   0.466   6.753   5.503  0.9148  0.0860 -0.3641
   15PVA    C42 2518   0.326   6.760   5.737  0.6674  0.6632 -1.1514
   15PVA    H83 2519   0.311   6.698   5.827  3.2019 -1.8235 -2.2701
   15PVA    H84 2520   0.301   6.860   5.774 -0.0364 -1.2213  4.5038
   15PVA    C43 2521   0.211   6.715   5.636 -1.3441  0.1781 -0.2598
   15PVA    H85 2522   0.247   6.746   5.537 -0.1844 -5.5830 -2.0101
   15PVA    H86 2523   0.123   6.762   5.682  0.0870 -1.4946  4.8114
   15PVA    C44 2524   0.193   6.562   5.630  0.6092  0.3968  0.6134
   15PVA    H87 2525   0.169   6.527   5.731  3.5627 -2.8890  0.3584
   15PVA    O15 2526   0.312   6.489   5.593 -0.2313  0.8978  0.2347
   15PVA    H88 2527   0.359   6.526   5.516  2.4244 -2.6104 -0.0749
   15PVA    C45 2528   0.089   6.505   5.534 -1.6940 -0.4823  0.6964
   15PVA    H89 2529   0.003   6.570   5.552 -0.2248  2.5611 -2.1347
   15PVA    H90 2530   0.055   6.403   5.552 -1.8544 -0.7059 -0.7551
   15PVA    C46 2531   0.113   6.533   5.377  0.9554 -0.1071  0.5861
   15PVA    H91 2532   0.015   6.524   5.328  1.1116 -3.5025  0.6191
   15PVA    H92 2533   0.152   6.632   5.352  0.5196 -0.3424 -1.2065
   15PVA    C47 2534   0.203   6.432   5.310  0.8524  0.6033  0.1917
   15PVA    H93 2535   0.152   6.427   5.213 -0.6754  0.6854  0.9547
   15PVA    O16 2536   0.190   6.297   5.357 -0.1604 -0.6823  0.1566
   15PVA    H94 2537   0.156   6.320   5.445 -7.3067 -1.1266 -1.8563
   15PVA    C48 2538   0.352   6.457   5.289 -0.3543  1.3508  0.2127
   15PVA    H95 2539   0.424   6.494   5.363  0.5407  0.1329 -0.0268
   15PVA    H96 2540   0.402   6.369   5.247  0.9417  2.5153 -0.7655
   15PVA    C49 2541   0.385   6.564   5.185 -0.2935 -0.5000  0.0232
   15PVA    H97 2542   0.373   6.664   5.229  1.6142  0.0828 -0.6624
   15PVA    H98 2543   0.315   6.557   5.101  1.2067 -1.7017 -1.1697
   15PVA    C50 2544   0.538   6.558   5.134  0.0927  0.7440 -0.7417
   15PVA    H99 2545   0.534   6.626   5.048  4.1636 -0.7339 -2.3854
   15PVA    O17 2546   0.579   6.437   5.081  1.2850  0.0947 -0.0356
   15PVA   H100 2547   0.597   6.363   5.141  0.6974 -0.1173 -0.1105
   15PVA    C51 2548   0.636   6.626   5.228  0.4917  1.1172  0.7355
   15PVA   H101 2549   0.614   6.568   5.319 -0.2488 -2.8536 -1.7420
   15PVA   H102 2550   0.730   6.583   5.192  0.8216  0.8688  1.8333
   16PVA     C1 2551   4.740   5.800   3.779 -0.0586  0.2123  0.5134
   16PVA     H1 2552   4.727   5.757   3.679 -0.4737 -0.2404  0.7596
   16PVA     H2 2553   4.678   5.732   3.838  3.6788 -1.5792  2.7505
   16PVA     C2 2554   4.692   5.953   3.784 -0.7525 -0.2091  0.0231
   16PVA     H3 2555   4.777   6.000   3.836 -0.1283 -3.2567  1.9786
   16PVA     O1 2556   4.574   5.975   3.862  0.5297 -0.0771  0.5093
   16PVA     H4 2557   4.521   5.923   3.799  1.9147 -1.1448  0.1852
   16PVA     C3 2558   4.688   6.010   3.633  0.1743  0.1181 -0.7552
   16PVA     H5 2559   4.604   5.954   3.590  2.0075 -1.3626 -2.6767
   16PVA     H6 2560   4.783   5.993   3.581  0.9917  4.8026 -1.2050
   16PVA     C4 2561   4.645   6.163   3.637 -1.1601 -0.4207  0.5619
   16PVA     H7 2562   4.551   6.186   3.690 -0.5373 -0.8192  1.8769
   16PVA     H8 2563   4.726   6.217   3.687 -2.3243  0.2914  1.7336
   16PVA     C5 2564   4.629   6.224   3.488  0.2363  0.5787  0.3751
   16PVA     H9 2565   4.542   6.162   3.465 -0.4673  2.4805 -2.5776
   16PVA     O2 2566   4.712   6.189   3.379  0.7299 -0.0348 -0.0763
   16PVA    H10 2567   4.656   6.183   3.299  0.0402  0.3206  0.3697
   16PVA     C6 2568   4.582   6.368   3.490 -0.6204  0.5756  0.9543
   16PVA    H11 2569   4.652   6.447   3.460 -1.0446  1.4419  2.1799
   16PVA    H12 2570   4.555   6.377   3.596 -2.2221 -3.6751  1.0720
   16PVA     C7 2571   4.459   6.385   3.424  0.6802  0.8722 -0.4198
   16PVA    H13 2572   4.380   6.323   3.469 -0.0633  1.4799 -0.8530
   16PVA    H14 2573   4.484   6.351   3.323  2.0449  2.8866 -0.8350
   16PVA     C8 2574   4.395   6.525   3.434 -0.9778  0.6221  0.5605
   16PVA    H15 2575   4.395   6.543   3.542  3.2997  1.3298  0.6397
   16PVA     O3 2576   4.486   6.633   3.381  0.9997  0.7631  0.3455
   16PVA    H16 2577   4.456   6.723   3.402  1.6569  1.4426 -1.4861
   16PVA     C9 2578   4.254   6.534   3.375  0.1501 -0.0834 -0.7005
   16PVA    H17 2579   4.190   6.444   3.384  0.8246 -0.4573  0.5361
   16PVA    H18 2580   4.267   6.541   3.266 -1.9708 -0.6888 -1.0565
   16PVA    C10 2581   4.176   6.653   3.434 -0.1849  0.7127  0.0717
   16PVA    H19 2582   4.244   6.731   3.470  1.5967  0.8330 -3.1925
   16PVA    H20 2583   4.129   6.614   3.525  1.1125 -0.5865  0.2258
   16PVA    C11 2584   4.066   6.720   3.338  0.1506  0.5038 -1.3449
   16PVA    H21 2585   4.119   6.798   3.282  1.7184  2.0844  2.0620
   16PVA     O4 2586   4.010   6.613   3.267  0.0011  0.2638 -0.0876
   16PVA    H22 2587   3.950   6.561   3.323  0.5144 -1.7427 -1.2800
   16PVA    C12 2588   3.956   6.784   3.432 -0.9199  0.0185  0.8779
   16PVA    H23 2589   3.908   6.699   3.483  1.0068 -1.1017  0.9010
   16PVA    H24 2590   4.015   6.836   3.509  3.9511  2.5400 -3.8895
   16PVA    C13 2591   3.834   6.873   3.373 -0.8637  0.5188  0.2069
   16PVA    H25 2592   3.813   6.824   3.277  2.9456 -1.3719  0.1437
   16PVA    H26 2593   3.881   6.972   3.363 -0.2062  0.9999  5.3815
   16PVA    C14 2594   3.701   6.884   3.452  1.4898 -0.8490 -0.5658
   16PVA    H27 2595   3.637   6.812   3.399 -1.6389  1.8770 -0.8324
   16PVA     O5 2596   3.728   6.837   3.583 -0.2295  0.2019 -0.4746
   16PVA    H28 2597   3.642   6.800   3.611 -0.7653 -0.8851 -3.2356
   16PVA    C15 2598   3.638   7.023   3.442  0.2463 -0.1713 -0.0063
   16PVA    H29 2599   3.715   7.100   3.448  0.9075 -0.7968 -0.3157
   16PVA    H30 2600   3.587   7.026   3.345  3.6378  2.0926 -1.9291
   16PVA    C16 2601   3.541   7.042   3.573 -0.6435 -0.7469  1.4542
   16PVA    H31 2602   3.586   7.066   3.669  0.7094  3.6184 -0.0478
   16PVA    H32 2603   3.485   6.948   3.589  0.1611 -2.0841 -2.3926
   16PVA    C17 2604   3.430   7.146   3.556 -0.8547  0.4674  0.4539
   16PVA    H33 2605   3.483   7.239   3.581 -0.4025 -0.3840  2.8760
   16PVA     O6 2606   3.381   7.160   3.422  0.2593 -0.2094 -0.0361
   16PVA    H34 2607   3.415   7.088   3.366 -2.4281  0.9011 -3.4879
   16PVA    C18 2608   3.319   7.144   3.673  0.9467  0.0431  0.2613
   16PVA    H35 2609   3.225   7.169   3.622  0.3723 -1.1342  0.6765
   16PVA    H36 2610   3.312   7.036   3.696  2.9151 -0.3442 -0.8117
   16PVA    C19 2611   3.341   7.206   3.809  0.2616 -1.0303  0.3329
   16PVA    H37 2612   3.398   7.299   3.794 -2.9448  0.8685 -1.1294
   16PVA    H38 2613   3.394   7.128   3.864 -2.2470 -4.6770 -1.9982
   16PVA    C20 2614   3.208   7.263   3.878 -1.0512  0.1574 -0.2932
   16PVA    H39 2615   3.123   7.213   3.830 -1.1941  1.5378 -1.5599
   16PVA     O7 2616   3.204   7.404   3.841 -0.5339  0.6158  0.0541
   16PVA    H40 2617   3.115   7.412   3.804 -1.1351 -0.0811  1.3007
   16PVA    C21 2618   3.197   7.251   4.037  1.0847  0.7662  1.0209
   16PVA    H41 2619   3.280   7.312   4.076 -0.1847  3.1451  0.1992
   16PVA    H42 2620   3.227   7.148   4.060 -3.0789 -0.2771  2.5783
   16PVA    C22 2621   3.053   7.272   4.103 -0.1492 -0.0672 -0.4441
   16PVA    H43 2622   3.002   7.364   4.074 -3.4120 -1.2409  1.0258
   16PVA    H44 2623   3.070   7.281   4.211 -0.5484 -1.6650 -0.2253
   16PVA    C23 2624   2.942   7.167   4.098 -1.5593  0.1779 -0.3437
   16PVA    H45 2625   2.991   7.070   4.115  0.9174  1.3007 -0.6606
   16PVA     O8 2626   2.871   7.155   3.974  1.0607  0.1175 -0.4921
   16PVA    H46 2627   2.778   7.129   3.986  0.6808  0.3406 -2.5979
   16PVA    C24 2628   2.832   7.177   4.206 -0.1170 -1.2942  0.4207
   16PVA    H47 2629   2.741   7.130   4.164 -0.4775 -2.2041  2.1018
   16PVA    H48 2630   2.849   7.117   4.297  0.1400  2.3258  2.9776
   16PVA    C25 2631   2.782   7.324   4.256 -0.3138  0.1961  0.3860
   16PVA    H49 2632   2.744   7.399   4.185  1.6618 -0.0997 -1.0744
   16PVA    H50 2633   2.870   7.381   4.286  0.8522 -1.3637  0.0376
   16PVA    C26 2634   2.670   7.331   4.371  0.1811  1.5898  0.7905
   16PVA    H51 2635   2.588   7.267   4.336  0.2558  2.7195 -1.6894
   16PVA     O9 2636   2.636   7.467   4.382  0.2585 -0.8849 -0.1821
   16PVA    H52 2637   2.616   7.487   4.289 -0.8321 -1.0954  0.0007
   16PVA    C27 2638   2.709   7.278   4.514  0.2998  0.9226 -0.3622
   16PVA    H53 2639   2.756   7.180   4.503 -1.8829 -0.2735  0.3215
   16PVA    H54 2640   2.791   7.345   4.542 -0.2578  1.0397  1.0558
   16PVA    C28 2641   2.607   7.292   4.633  0.0919 -0.5553  0.5651
   16PVA    H55 2642   2.504   7.261   4.612  0.6408 -2.2813  0.3160
   16PVA    H56 2643   2.598   7.400   4.653  4.8409 -0.3161  2.9145
   16PVA    C29 2644   2.659   7.239   4.780 -0.1026 -0.2213  0.1794
   16PVA    H57 2645   2.589   7.158   4.804 -2.4816  1.6172 -0.1768
   16PVA    O10 2646   2.792   7.173   4.778 -0.3019 -0.2410  0.1841
   16PVA    H58 2647   2.838   7.204   4.698 -1.2427  1.8800  0.4029
   16PVA    C30 2648   2.660   7.331   4.911 -0.7546  0.4712  0.9423
   16PVA    H59 2649   2.734   7.407   4.883  1.9490 -3.0475 -2.4263
   16PVA    H60 2650   2.557   7.367   4.926 -2.7056 -4.2814  0.7996
   16PVA    C31 2651   2.693   7.266   5.049 -0.1033 -0.4503 -0.4178
   16PVA    H61 2652   2.779   7.199   5.042 -0.2494 -1.0350  2.3125
   16PVA    H62 2653   2.599   7.217   5.080 -2.5125  1.7162 -3.6374
   16PVA    C32 2654   2.726   7.359   5.168  0.3431  0.4947 -0.7277
   16PVA    H63 2655   2.654   7.441   5.163  2.0699  2.4544  2.8739
   16PVA    O11 2656   2.860   7.424   5.166 -0.1318  0.2024  0.1406
   16PVA    H64 2657   2.931   7.360   5.152  3.0341  3.7011 -1.7986
   16PVA    C33 2658   2.716   7.312   5.325 -0.1421 -0.5067  1.1244
   16PVA    H65 2659   2.812   7.262   5.340  1.7335  3.1950  2.5971
   16PVA    H66 2660   2.716   7.396   5.395 -0.7560 -0.6647  1.3243
   16PVA    C34 2661   2.610   7.217   5.363  0.2162 -0.7148  0.6020
   16PVA    H67 2662   2.506   7.246   5.345 -0.0529  0.5228  3.5341
   16PVA    H68 2663   2.637   7.126   5.308  0.9861 -0.0997 -0.0444
   16PVA    C35 2664   2.615   7.181   5.515 -0.1849  1.0137  0.5810
   16PVA    H69 2665   2.693   7.111   5.549 -3.4412 -1.6455  3.3705
   16PVA    O12 2666   2.620   7.309   5.582 -0.7966 -0.2094  0.6440
   16PVA    H70 2667   2.714   7.302   5.604 -0.2004  1.2917 -1.1735
   16PVA    C36 2668   2.477   7.126   5.574 -0.2098  0.4233  0.4071
   16PVA    H71 2669   2.402   7.195   5.534 -0.5385 -2.0329 -3.8280
   16PVA    H72 2670   2.458   7.028   5.530  2.3686 -1.0771  2.3079
   16PVA    C37 2671   2.443   7.118   5.728  0.0891  0.5508 -0.8632
   16PVA    H73 2672   2.539   7.097   5.777  0.5447  1.6398 -1.2468
   16PVA    H74 2673   2.421   7.220   5.762  0.7952  0.6670 -0.7414
   16PVA    C38 2674   2.353   7.012   5.794 -0.1608  0.1881  0.9336
   16PVA    H75 2675   2.319   7.052   5.890  0.7583 -2.5750  2.5277
   16PVA    O13 2676   2.416   6.891   5.822  0.1529 -0.0310  0.1738
   16PVA    H76 2677   2.497   6.899   5.875  0.2528 -2.4382  0.5206
   16PVA    C39 2678   2.222   6.972   5.712 -0.8999 -0.2039 -0.4551
   16PVA    H77 2679   2.235   6.937   5.609 -1.1626 -0.3558 -0.4356
   16PVA    H78 2680   2.163   7.064   5.717  1.4660  1.3354  2.1216
   16PVA    C40 2681   2.141   6.858   5.781 -0.6869  0.1044  0.5685
   16PVA    H79 2682   2.210   6.773   5.775 -0.0987  0.6466 -1.1021
   16PVA    H80 2683   2.106   6.867   5.884 -1.7296 -0.9591  0.3236
   16PVA    C41 2684   2.020   6.805   5.696  0.0845  0.9703  0.1545
   16PVA    H81 2685   2.071   6.775   5.604 -0.5262  2.4277 -0.6907
   16PVA    O14 2686   1.960   6.689   5.754  0.0780 -0.3388  0.9355
   16PVA    H82 2687   1.891   6.659   5.692 -1.8727  2.4720  1.5265
   16PVA    C42 2688   1.921   6.914   5.661 -0.1871 -0.4136 -0.1957
   16PVA    H83 2689   1.960   7.016   5.649 -0.5913 -0.4134 -1.7545
   16PVA    H84 2690   1.862   6.934   5.751 -0.3948  0.4486 -0.5133
   16PVA    C43 2691   1.813   6.886   5.563  0.5076 -0.4615  1.8623
   16PVA    H85 2692   1.865   6.861   5.470 -0.1051  0.0588  1.3752
   16PVA    H86 2693   1.741   6.809   5.593 -0.4592  0.6823  2.5504
   16PVA    C44 2694   1.730   7.018   5.547  0.4100  1.8055  0.1703
   16PVA    H87 2695   1.667   7.040   5.634 -1.8135 -0.9082 -0.6146
   16PVA    O15 2696   1.810   7.127   5.510 -0.5880 -0.1341  0.5058
   16PVA    H88 2697   1.832   7.116   5.416 -1.1892  1.4454  0.1483
   16PVA    C45 2698   1.628   6.974   5.440  0.3156 -0.4937 -0.0591
   16PVA    H89 2699   1.567   6.891   5.478 -2.2473  1.4272  0.3247
   16PVA    H90 2700   1.667   6.927   5.349  3.6481  3.0178 -0.7163
   16PVA    C46 2701   1.522   7.071   5.390 -0.7766  1.0366  0.4139
   16PVA    H91 2702   1.579   7.150   5.339  0.0057 -1.0712 -2.2501
   16PVA    H92 2703   1.480   7.117   5.480  0.4942  0.4876  1.3125
   16PVA    C47 2704   1.396   7.032   5.305  0.0675  0.4066 -0.7480
   16PVA    H93 2705   1.349   6.956   5.369  1.8899 -0.4142 -0.3168
   16PVA    O16 2706   1.443   6.974   5.182 -0.3397  1.3209  0.0523
   16PVA    H94 2707   1.506   7.036   5.142  1.4188  1.1629  2.3650
   16PVA    C48 2708   1.292   7.143   5.261 -0.3376 -0.4708  0.1338
   16PVA    H95 2709   1.302   7.230   5.327  2.2813  0.2068 -1.0206
   16PVA    H96 2710   1.343   7.187   5.175  2.2115 -2.1867  0.6491
   16PVA    C49 2711   1.143   7.102   5.218 -0.7156  0.3385 -0.3370
   16PVA    H97 2712   1.159   7.040   5.130 -3.0981 -2.4757  1.0486
   16PVA    H98 2713   1.113   7.197   5.172 -2.8877  1.3088  2.7444
   16PVA    C50 2714   1.036   7.044   5.314 -1.2980 -0.0728 -1.2879
   16PVA    H99 2715   1.060   6.938   5.331  0.1510  0.4258  0.1030
   16PVA    O17 2716   1.048   7.102   5.443 -0.0029 -1.2515  0.2041
   16PVA   H100 2717   1.051   7.198   5.427  1.0063 -1.4954 -1.3777
   16PVA    C51 2718   0.891   7.056   5.244  0.6910 -0.3844 -0.5813
   16PVA   H101 2719   0.834   7.147   5.265  0.6278 -0.8605  1.5001
   16PVA   H102 2720   0.900   7.036   5.137 -0.4668 -0.0032 -0.7650
   17PVA     C1 2721   5.113   5.786   4.133 -0.3099 -0.4465 -0.1625
   17PVA     H1 2722   5.028   5.805   4.199  0.1845  0.9462  0.1122
   17PVA     H2 2723   5.130   5.679   4.151 -3.5778 -0.4123  4.9193
   17PVA     C2 2724   5.229   5.871   4.195 -0.5207 -0.3415  0.5064
   17PVA     H3 2725   5.203   5.976   4.211 -2.4076 -0.7706  0.5136
   17PVA     O1 2726   5.329   5.855   4.095 -0.1516 -0.4376 -0.6803
   17PVA     H4 2727   5.295   5.819   4.011 -1.5839 -0.5510 -0.0732
   17PVA     C3 2728   5.306   5.825   4.319  0.1256  0.4815 -0.8409
   17PVA     H5 2729   5.409   5.862   4.313  0.6114 -1.0758 -3.1929
   17PVA     H6 2730   5.244   5.854   4.405  0.0909  1.5927 -1.2260
   17PVA     C4 2731   5.351   5.674   4.326 -0.0721 -0.4628  0.2163
   17PVA     H7 2732   5.376   5.635   4.227  1.0638 -1.2008  0.7682
   17PVA     H8 2733   5.258   5.625   4.358  0.6457  0.4639  4.3813
   17PVA     C5 2734   5.445   5.629   4.443 -0.1483  0.8347  1.3348
   17PVA     H9 2735   5.549   5.664   4.434  0.2682 -0.5321  0.4736
   17PVA     O2 2736   5.396   5.673   4.560  0.9037 -0.3144  0.3314
   17PVA    H10 2737   5.472   5.674   4.621  1.0860  0.9094  0.0986
   17PVA     C6 2738   5.453   5.476   4.447  1.7984  1.3358 -1.0452
   17PVA    H11 2739   5.365   5.434   4.497  3.7718  0.0945  1.6534
   17PVA    H12 2740   5.445   5.419   4.354 -2.0142  1.3877 -0.9100
   17PVA     C7 2741   5.596   5.423   4.503 -0.9715 -1.1557 -0.2649
   17PVA    H13 2742   5.586   5.486   4.593  0.8506 -0.5789 -0.4179
   17PVA    H14 2743   5.675   5.472   4.445  0.8122 -0.5108  2.5013
   17PVA     C8 2744   5.631   5.272   4.521  0.8990  0.5320 -0.9296
   17PVA    H15 2745   5.575   5.238   4.608  2.6902  0.1424  0.1306
   17PVA     O3 2746   5.568   5.200   4.407 -0.9187 -0.2487 -0.0611
   17PVA    H16 2747   5.510   5.252   4.349 -0.7583 -1.8006 -1.7188
   17PVA     C9 2748   5.780   5.228   4.546 -0.2432  0.0175 -0.2435
   17PVA    H17 2749   5.796   5.130   4.593  0.3566 -0.9572 -2.3369
   17PVA    H18 2750   5.816   5.194   4.448  1.0106 -2.9103  1.0952
   17PVA    C10 2751   5.874   5.346   4.604  0.3719  0.1085 -0.1539
   17PVA    H19 2752   5.829   5.375   4.700 -1.9987  0.5144 -1.3080
   17PVA    H20 2753   5.869   5.440   4.547  0.7202  1.0935  1.3784
   17PVA    C11 2754   6.027   5.302   4.622  0.6486  0.4231 -0.3287
   17PVA    H21 2755   6.039   5.193   4.618 -0.1962  0.3581 -2.5198
   17PVA     O4 2756   6.068   5.355   4.746  0.4485  0.1442 -0.1821
   17PVA    H22 2757   6.160   5.325   4.750  0.9390  1.2345 -2.2083
   17PVA    C12 2758   6.116   5.356   4.512 -0.5818 -0.4083  1.1106
   17PVA    H23 2759   6.086   5.298   4.424 -0.9274  0.8451  0.3919
   17PVA    H24 2760   6.101   5.463   4.498  2.0684 -0.1686 -0.5187
   17PVA    C13 2761   6.274   5.339   4.517  0.0655 -0.0087 -0.3491
   17PVA    H25 2762   6.315   5.383   4.609 -0.2907  0.3825 -0.3719
   17PVA    H26 2763   6.299   5.232   4.518  3.2793  0.5957  2.0465
   17PVA    C14 2764   6.328   5.416   4.406 -0.5938 -0.5889  0.6701
   17PVA    H27 2765   6.289   5.517   4.389 -2.6778 -1.9014 -4.0596
   17PVA     O5 2766   6.285   5.355   4.290  0.5874  1.2707  0.7274
   17PVA    H28 2767   6.189   5.372   4.296  0.7255  2.2858  0.2648
   17PVA    C15 2768   6.486   5.408   4.413  0.1766  0.3700  0.6506
   17PVA    H29 2769   6.523   5.311   4.449 -1.3868 -1.2763 -1.8991
   17PVA    H30 2770   6.515   5.469   4.500 -2.4331 -0.8490  2.5312
   17PVA    C16 2771   6.572   5.465   4.302 -0.6405  0.1207 -0.7079
   17PVA    H31 2772   6.532   5.409   4.216 -4.5405 -1.3528  1.7731
   17PVA    H32 2773   6.543   5.570   4.287 -0.3751  0.3187  0.1104
   17PVA    C17 2774   6.716   5.470   4.339 -0.3050 -0.2358  1.1285
   17PVA    H33 2775   6.731   5.508   4.441  1.3454  1.3841  0.3355
   17PVA     O6 2776   6.757   5.332   4.332  0.2201  0.0704 -0.5052
   17PVA    H34 2777   6.683   5.283   4.291 -1.0049  2.7957 -1.8115
   17PVA    C18 2778   6.825   5.560   4.251  0.2472  0.8410  0.4755
   17PVA    H35 2779   6.770   5.650   4.222 -1.3712 -0.2225  0.0661
   17PVA    H36 2780   6.846   5.507   4.157  1.7814  2.3716 -0.0821
   17PVA    C19 2781   6.965   5.573   4.318 -0.2355 -0.1189  1.3671
   17PVA    H37 2782   7.035   5.610   4.242 -0.7560 -1.0930  0.3909
   17PVA    H38 2783   7.002   5.478   4.358  1.5763  0.0653  0.2340
   17PVA    C20 2784   6.962   5.679   4.432  0.0228 -0.4291  0.1088
   17PVA    H39 2785   6.881   5.641   4.495  0.4798 -2.5124 -0.4835
   17PVA     O7 2786   7.077   5.649   4.505 -0.7677  0.4807 -0.0214
   17PVA    H40 2787   7.128   5.725   4.473  2.3774 -0.8186  1.4567
   17PVA    C21 2788   6.943   5.832   4.402  0.5310 -1.0956 -0.5103
   17PVA    H41 2789   6.865   5.858   4.330 -0.5216 -1.0367  0.6140
   17PVA    H42 2790   7.026   5.862   4.337 -1.5344  1.4941 -2.1858
   17PVA    C22 2791   6.936   5.917   4.546 -0.2726  1.1059  0.4529
   17PVA    H43 2792   6.881   5.849   4.613  3.1383 -0.8948  1.4566
   17PVA    H44 2793   7.034   5.910   4.596  0.2429 -2.8031 -0.7417
   17PVA    C23 2794   6.880   6.062   4.536  0.5709 -0.2099  0.6514
   17PVA    H45 2795   6.777   6.077   4.502 -0.6450 -3.3417  2.5662
   17PVA     O8 2796   6.965   6.124   4.446  0.6487  0.2980 -1.0398
   17PVA    H46 2797   7.044   6.066   4.442  1.2020  1.0638 -1.4493
   17PVA    C24 2798   6.872   6.137   4.669 -0.1497  1.0914  1.0987
   17PVA    H47 2799   6.798   6.081   4.727 -2.9866  1.8428 -1.5182
   17PVA    H48 2800   6.966   6.117   4.723  0.8078 -2.3679 -1.4511
   17PVA    C25 2801   6.820   6.281   4.670  0.4063  1.0316 -0.0098
   17PVA    H49 2802   6.875   6.333   4.590 -1.7854  1.6448 -1.1892
   17PVA    H50 2803   6.712   6.282   4.651 -0.2054 -2.8917  2.2203
   17PVA    C26 2804   6.868   6.357   4.808  0.3153  0.0768 -0.2461
   17PVA    H51 2805   6.853   6.302   4.901  1.0592 -3.6149 -2.1098
   17PVA     O9 2806   6.776   6.480   4.795 -0.3847  0.3476  0.7335
   17PVA    H52 2807   6.741   6.492   4.706 -4.1999 -1.3068  1.7907
   17PVA    C27 2808   7.007   6.408   4.794 -0.6970  0.2624 -0.0921
   17PVA    H53 2809   7.000   6.478   4.709 -4.2246  1.2855  0.8707
   17PVA    H54 2810   7.081   6.338   4.753 -0.8468  0.1187 -0.1161
   17PVA    C28 2811   7.064   6.507   4.910 -0.4754  0.4812  0.3413
   17PVA    H55 2812   7.001   6.581   4.961  2.4304  0.4617  4.4375
   17PVA    H56 2813   7.094   6.423   4.974 -3.0758 -1.6861 -1.0446
   17PVA    C29 2814   7.195   6.577   4.860 -0.8737 -0.8462 -0.1903
   17PVA    H57 2815   7.155   6.631   4.773  1.9402  2.8578  0.5449
   17PVA    O10 2816   7.300   6.483   4.835 -0.6282 -0.2742  0.1077
   17PVA    H58 2817   7.330   6.469   4.926 -3.4755  3.9576  2.0129
   17PVA    C30 2818   7.259   6.701   4.941  0.7351  0.1115 -0.7918
   17PVA    H59 2819   7.183   6.732   5.014  0.7405 -3.5072  0.9866
   17PVA    H60 2820   7.349   6.673   4.997  0.5939  0.4384 -0.3934
   17PVA    C31 2821   7.304   6.810   4.849  0.3132  0.2372 -0.4606
   17PVA    H61 2822   7.226   6.850   4.783 -0.3265 -0.1402  0.0634
   17PVA    H62 2823   7.368   6.751   4.782  4.2649 -1.8392  4.4958
   17PVA    C32 2824   7.378   6.930   4.886  0.7573 -0.0511 -0.7293
   17PVA    H63 2825   7.473   6.919   4.939  0.4196  0.4393 -0.0074
   17PVA    O11 2826   7.304   7.006   4.977  0.0267 -0.3304  0.0770
   17PVA    H64 2827   7.259   6.944   5.036 -1.4082  2.0945  1.7197
   17PVA    C33 2828   7.438   7.019   4.767  0.2101 -1.1790  0.8884
   17PVA    H65 2829   7.359   7.042   4.695 -2.0040 -3.5149  2.3708
   17PVA    H66 2830   7.469   7.113   4.813  1.6145 -1.4874  0.6508
   17PVA    C34 2831   7.568   6.965   4.695  0.0646 -0.7307  0.5562
   17PVA    H67 2832   7.541   6.870   4.648  3.5763 -0.5332 -2.2258
   17PVA    H68 2833   7.633   6.935   4.778  1.5820  2.0928  0.5390
   17PVA    C35 2834   7.635   7.056   4.598 -0.2646  0.2444 -0.1281
   17PVA    H69 2835   7.567   7.099   4.524  0.0375  3.0293  1.0669
   17PVA    O12 2836   7.696   7.165   4.674 -0.6860  0.3110  0.6467
   17PVA    H70 2837   7.627   7.192   4.737 -0.4793 -1.8478  1.8935
   17PVA    C36 2838   7.757   6.974   4.527 -0.5402 -0.5320  0.2925
   17PVA    H71 2839   0.037   7.032   4.446  0.3117 -1.5388  0.0348
   17PVA    H72 2840   0.063   6.965   4.610 -0.9945  2.5424  1.1264
   17PVA    C37 2841   7.741   6.826   4.478 -0.0980  0.2098  0.2868
   17PVA    H73 2842   0.027   6.750   4.538 -1.7551 -0.8418  0.4003
   17PVA    H74 2843   7.637   6.795   4.493  0.3292 -1.5541 -0.1983
   17PVA    C38 2844   0.030   6.792   4.342 -0.0273  0.4300  0.1792
   17PVA    H75 2845   7.741   6.842   4.260 -2.5448 -0.7569  1.0322
   17PVA    O13 2846   0.170   6.821   4.361 -0.0634  1.1047 -1.0041
   17PVA    H76 2847   0.188   6.915   4.341 -1.6535  1.8418  0.7538
   17PVA    C39 2848   0.032   6.631   4.305 -0.9803 -0.6180  0.3859
   17PVA    H77 2849   7.701   6.583   4.283 -0.2397 -1.2737 -1.6327
   17PVA    H78 2850   0.079   6.586   4.392 -3.5230 -0.0647  2.1687
   17PVA    C40 2851   0.116   6.606   4.175 -0.8693  0.1353  0.8411
   17PVA    H79 2852   0.091   6.666   4.086  0.4557  2.1463  1.7652
   17PVA    H80 2853   0.218   6.636   4.199 -0.5422  0.1413 -0.4430
   17PVA    C41 2854   0.111   6.455   4.110 -0.3524 -0.7157  1.0677
   17PVA    H81 2855   0.156   6.386   4.182 -0.0209  0.1318  1.6959
   17PVA    O14 2856   7.738   6.430   4.097  1.2988 -0.0070 -0.7793
   17PVA    H82 2857   7.733   6.341   4.057  1.6983 -0.5147  0.2555
   17PVA    C42 2858   0.185   6.448   3.970 -0.2127 -0.3505 -0.1861
   17PVA    H83 2859   0.113   6.490   3.898 -1.6679  1.4337  2.1464
   17PVA    H84 2860   0.272   6.514   3.976  0.8856 -1.9075  2.3262
   17PVA    C43 2861   0.250   6.309   3.941  0.8993 -0.1480  0.2876
   17PVA    H85 2862   0.178   6.235   3.978 -2.0081  2.5030  0.3836
   17PVA    H86 2863   0.334   6.317   4.010  0.8423  0.6903  0.2699
   17PVA    C44 2864   0.312   6.267   3.798  0.7950 -0.6006 -0.8692
   17PVA    H87 2865   0.300   6.354   3.732 -2.8556  0.4391  0.8913
   17PVA    O15 2866   0.226   6.169   3.741 -0.1474 -1.0563 -0.0933
   17PVA    H88 2867   0.145   6.221   3.732 -0.4209 -0.4830  3.8266
   17PVA    C45 2868   0.447   6.194   3.801 -0.2531 -1.0921  0.8185
   17PVA    H89 2869   0.523   6.240   3.866 -0.0919  2.8629 -1.8116
   17PVA    H90 2870   0.441   6.089   3.832  1.3859 -2.5152 -2.9997
   17PVA    C46 2871   0.519   6.198   3.669 -0.3930  0.4870 -0.0809
   17PVA    H91 2872   0.452   6.130   3.615 -1.9638  1.3462  0.7156
   17PVA    H92 2873   0.505   6.296   3.623 -1.1754  1.3681  1.9040
   17PVA    C47 2874   0.672   6.161   3.655 -0.2113  0.2594  0.6048
   17PVA    H93 2875   0.714   6.217   3.741 -0.2546 -2.1106  2.2563
   17PVA    O16 2876   0.724   6.208   3.533  0.2455 -0.2125  1.3395
   17PVA    H94 2877   0.648   6.198   3.474  0.9630 -3.2133  0.7745
   17PVA    C48 2878   0.718   6.018   3.690  0.6566  0.3242 -1.1905
   17PVA    H95 2879   0.673   5.987   3.785  1.8280  0.2364 -0.6382
   17PVA    H96 2880   0.686   5.952   3.609  0.0176 -1.9955  0.8502
   17PVA    C49 2881   0.874   6.016   3.696  0.7980 -0.6944 -0.3971
   17PVA    H97 2882   0.906   6.089   3.771  1.6559  0.9061 -2.2349
   17PVA    H98 2883   0.906   6.063   3.602 -1.0455 -0.2101 -0.8269
   17PVA    C50 2884   0.958   5.893   3.707  0.0682 -0.3229 -0.1898
   17PVA    H99 2885   0.933   5.853   3.806  1.2573  0.2333  0.3494
   17PVA    O17 2886   0.921   5.808   3.600  0.0132 -0.0424 -0.0314
   17PVA   H100 2887   0.852   5.857   3.552 -0.4915 -0.3855  0.3319
   17PVA    C51 2888   1.121   5.913   3.721 -0.6459 -0.3567  0.3249
   17PVA   H101 2889   1.143   5.895   3.827 -1.4064  0.1408  0.5731
   17PVA   H102 2890   1.139   6.019   3.698 -0.5341  0.1325  2.4047
   18PVA     C1 2891   7.584   6.752   5.441  0.2920  0.6833 -0.5627
   18PVA     H1 2892   7.664   6.688   5.401  1.3915  2.8332 -1.9967
   18PVA     H2 2893   7.592   6.722   5.546  0.7366  1.0752 -0.4824
   18PVA     C2 2894   7.458   6.705   5.363  0.1684  0.1805  0.7744
   18PVA     H3 2895   7.457   6.595   5.369 -1.4069 -0.0462 -2.0211
   18PVA     O1 2896   7.446   6.753   5.240  1.1061 -0.5790  0.1838
   18PVA     H4 2897   7.526   6.718   5.198  0.9714 -1.0733  0.3314
   18PVA     C3 2898   7.326   6.753   5.434 -0.7384 -0.1101 -0.9317
   18PVA     H5 2899   7.236   6.757   5.370 -0.4688  0.3961 -1.2886
   18PVA     H6 2900   7.338   6.860   5.455 -3.4392 -0.4419  3.4634
   18PVA     C4 2901   7.305   6.670   5.563  0.2141  0.1694 -0.1808
   18PVA     H7 2902   7.286   6.563   5.546 -3.0987  0.6938 -0.6307
   18PVA     H8 2903   7.392   6.666   5.629 -1.2141  0.5266  1.8436
   18PVA     C5 2904   7.175   6.714   5.633  0.7764  0.5837 -0.5774
   18PVA     H9 2905   7.161   6.823   5.639 -2.2765  0.4948 -3.0375
   18PVA     O2 2906   7.070   6.653   5.559  0.7652 -0.1681 -0.2888
   18PVA    H10 2907   7.048   6.566   5.597 -0.9408 -0.9712 -2.8502
   18PVA     C6 2908   7.164   6.661   5.791 -0.3019  1.3604 -0.1347
   18PVA    H11 2909   7.083   6.689   5.859 -2.3331 -2.6386 -0.6270
   18PVA    H12 2910   7.248   6.713   5.840  0.2425  3.0079 -2.6396
   18PVA     C7 2911   7.150   6.496   5.801  0.0652  0.5262 -0.2301
   18PVA    H13 2912   7.047   6.471   5.832  0.1713  1.4976  0.9632
   18PVA    H14 2913   7.182   6.437   5.715 -1.0268 -2.6585  1.3639
   18PVA     C8 2914   7.242   6.436   5.904 -1.1189  0.2387 -0.4463
   18PVA    H15 2915   7.214   6.331   5.919  0.7866 -0.3522 -0.7873
   18PVA     O3 2916   7.226   6.491   6.025  0.3579 -0.0467 -0.9352
   18PVA    H16 2917   7.287   6.451   6.089  2.5583 -0.4572 -3.1029
   18PVA     C9 2918   7.389   6.405   5.864 -0.1542 -0.9705 -0.4262
   18PVA    H17 2919   7.443   6.376   5.955 -0.4718  1.0456  0.4486
   18PVA    H18 2920   7.432   6.501   5.831 -0.1214 -0.9289 -0.2631
   18PVA    C10 2921   7.401   6.295   5.750 -0.2540 -0.0168 -0.7449
   18PVA    H19 2922   7.356   6.201   5.785  2.9153 -0.5388  2.5222
   18PVA    H20 2923   7.364   6.336   5.655  0.4793  4.7026  0.7053
   18PVA    C11 2924   7.545   6.257   5.704 -0.2171  0.5494 -0.2784
   18PVA    H21 2925   7.603   6.244   5.796  0.4530 -2.5170 -1.0071
   18PVA     O4 2926   7.603   6.360   5.631  0.7059  0.1319  0.7616
   18PVA    H22 2927   7.581   6.332   5.541 -1.4495 -2.4764  1.9467
   18PVA    C12 2928   7.525   6.127   5.609 -0.7345  0.6977  0.2476
   18PVA    H23 2929   7.462   6.149   5.522  0.2797  4.2707  0.2802
   18PVA    H24 2930   7.621   6.127   5.558  2.2332 -4.3061  4.7573
   18PVA    C13 2931   7.499   5.998   5.708 -0.0257 -0.8478  1.0200
   18PVA    H25 2932   7.450   5.928   5.639 -1.4882 -0.2625  1.4250
   18PVA    H26 2933   7.447   6.037   5.796  0.9689 -0.5345  1.4839
   18PVA    C14 2934   7.627   5.933   5.764 -0.5390  0.8064 -0.0855
   18PVA    H27 2935   7.719   5.980   5.727  1.5206 -1.4494  1.8162
   18PVA     O5 2936   7.633   5.958   5.907 -0.1323 -0.1801 -0.6775
   18PVA    H28 2937   7.550   5.913   5.931 -0.3024  0.4332 -0.0718
   18PVA    C15 2938   7.657   5.788   5.727  0.2365  0.3330 -0.4493
   18PVA    H29 2939   7.679   5.769   5.622  2.7147 -2.7664  0.4555
   18PVA    H30 2940   7.578   5.716   5.752  0.9168  0.5218  2.7846
   18PVA    C16 2941   0.021   5.740   5.802 -0.1081 -0.4847  0.3685
   18PVA    H31 2942   0.102   5.807   5.770  0.0949 -1.9910 -2.6362
   18PVA    H32 2943   0.009   5.741   5.911 -0.5372 -0.6885  0.3243
   18PVA    C17 2944   0.073   5.598   5.770 -0.1534  0.7727  0.5789
   18PVA    H33 2945   0.059   5.572   5.664 -5.2683 -1.0705  1.4143
   18PVA     O6 2946   7.741   5.517   5.834  0.8484 -0.2764 -1.2325
   18PVA    H34 2947   7.661   5.556   5.796 -0.1237 -1.6862 -0.7111
   18PVA    C18 2948   0.212   5.557   5.823  0.1970 -0.1035  0.1147
   18PVA    H35 2949   0.229   5.459   5.777  0.7025  1.0791 -2.3715
   18PVA    H36 2950   0.203   5.543   5.932  1.0044  0.4493  0.2640
   18PVA    C19 2951   0.333   5.633   5.780  0.3046 -1.4914  0.2776
   18PVA    H37 2952   0.397   5.624   5.868  2.7792 -0.0102 -1.2607
   18PVA    H38 2953   0.309   5.737   5.752 -0.9016 -1.4630  1.3236
   18PVA    C20 2954   0.400   5.571   5.654  0.1490  0.1281 -0.7302
   18PVA    H39 2955   0.442   5.475   5.686  0.4508  1.0028  1.6845
   18PVA     O7 2956   0.308   5.551   5.545 -0.6944 -0.1529  0.6341
   18PVA    H40 2957   0.283   5.457   5.547 -0.1767 -0.2740  1.4663
   18PVA    C21 2958   0.515   5.662   5.591  0.6542  0.7344 -1.2354
   18PVA    H41 2959   0.558   5.601   5.510  0.7689 -1.4158  0.3649
   18PVA    H42 2960   0.457   5.740   5.541  1.8799 -0.0043 -4.0296
   18PVA    C22 2961   0.637   5.705   5.686 -0.9670  0.7956  0.1708
   18PVA    H43 2962   0.702   5.622   5.716  1.0706  3.0605  2.6221
   18PVA    H44 2963   0.596   5.727   5.785 -0.6688 -1.2991  0.8014
   18PVA    C23 2964   0.736   5.811   5.631 -0.0982  0.3758  1.3413
   18PVA    H45 2965   0.674   5.902   5.627  1.5170  1.5164  1.0499
   18PVA     O8 2966   0.830   5.831   5.732  0.3477 -0.5840  0.8408
   18PVA    H46 2967   0.912   5.782   5.713  0.2839 -1.3184  2.3273
   18PVA    C24 2968   0.800   5.788   5.493 -0.1291  0.1751  0.3236
   18PVA    H47 2969   0.796   5.682   5.467  0.9912  0.7572 -2.5974
   18PVA    H48 2970   0.743   5.850   5.423  2.5227  1.1929 -1.1040
   18PVA    C25 2971   0.945   5.839   5.480 -0.1769 -0.8458 -0.3002
   18PVA    H49 2972   0.957   5.947   5.492  2.1065 -1.1447  0.7055
   18PVA    H50 2973   1.000   5.796   5.565 -0.6540  0.2742  0.5950
   18PVA    C26 2974   1.017   5.800   5.360 -1.2242 -0.2597 -0.0971
   18PVA    H51 2975   0.959   5.848   5.279  0.2703  0.4439 -0.7859
   18PVA     O9 2976   1.021   5.656   5.341  0.2043  0.7351  0.7085
   18PVA    H52 2977   0.990   5.635   5.252  1.8673  3.8353 -0.7809
   18PVA    C27 2978   1.155   5.875   5.352  0.4971  0.1698  0.3521
   18PVA    H53 2979   1.211   5.874   5.447 -2.1815 -1.8711  2.0601
   18PVA    H54 2980   1.137   5.983   5.338 -0.8085 -0.2159 -1.1688
   18PVA    C28 2981   1.231   5.843   5.221 -0.2227  0.2627 -0.7189
   18PVA    H55 2982   1.272   5.742   5.235 -2.6604 -1.0337 -2.1575
   18PVA    H56 2983   1.168   5.824   5.133 -0.0320 -0.7108 -0.6536
   18PVA    C29 2984   1.339   5.936   5.166 -0.2065  0.8629 -0.3494
   18PVA    H57 2985   1.434   5.916   5.219  0.7942 -3.9629 -3.4084
   18PVA    O10 2986   1.316   6.069   5.201  0.0576  0.7794 -0.0433
   18PVA    H58 2987   1.219   6.071   5.191 -0.0018  0.8404  0.5184
   18PVA    C30 2988   1.363   5.935   5.014 -0.0256 -0.8517 -0.2873
   18PVA    H59 2989   1.417   6.023   4.975 -0.0956 -1.0786 -0.9050
   18PVA    H60 2990   1.270   5.928   4.957  0.5606 -1.5239 -1.1969
   18PVA    C31 2991   1.461   5.821   4.976  1.2934  0.1955 -0.9077
   18PVA    H61 2992   1.424   5.729   5.022  0.9792  1.5900  1.8509
   18PVA    H62 2993   1.560   5.841   5.020  0.9370 -3.4030  2.1013
   18PVA    C32 2994   1.469   5.806   4.824 -0.1568  0.0638  0.2399
   18PVA    H63 2995   1.370   5.782   4.785 -0.1054 -0.3367  0.3451
   18PVA    O11 2996   1.500   5.926   4.756 -0.1472 -0.9362  0.2384
   18PVA    H64 2997   1.472   6.007   4.803  3.3352  1.9384 -2.0319
   18PVA    C33 2998   1.573   5.703   4.772 -0.5587  0.4798  0.3073
   18PVA    H65 2999   1.674   5.736   4.801 -1.0811  1.4088  1.1363
   18PVA    H66 3000   1.554   5.690   4.665 -1.4553  2.3722  0.1848
   18PVA    C34 3001   1.561   5.560   4.838  0.4407  0.6161 -0.3252
   18PVA    H67 3002   1.581   5.567   4.946  0.7976 -1.7083 -0.1824
   18PVA    H68 3003   1.464   5.514   4.818  1.3365 -1.9850  0.8204
   18PVA    C35 3004   1.661   5.470   4.771 -0.7322  0.4275 -0.7809
   18PVA    H69 3005   1.754   5.527   4.779  0.1816 -1.1020  0.1128
   18PVA    O12 3006   1.627   5.449   4.634  0.0245  0.0377 -0.8643
   18PVA    H70 3007   1.630   5.533   4.586  0.7311  1.0432  0.8597
   18PVA    C36 3008   1.691   5.332   4.839  0.2164  0.3460 -0.3476
   18PVA    H71 3009   1.659   5.317   4.943 -1.3188 -0.4498 -0.8994
   18PVA    H72 3010   1.630   5.261   4.781  1.5393  0.3882 -1.8479
   18PVA    C37 3011   1.829   5.269   4.825 -0.1641 -0.9128 -0.2873
   18PVA    H73 3012   1.825   5.161   4.844  4.4047 -1.1439  0.4195
   18PVA    H74 3013   1.878   5.314   4.912 -2.2677 -0.3121  0.6454
   18PVA    C38 3014   1.902   5.286   4.694 -0.3772  0.2132  1.2165
   18PVA    H75 3015   1.831   5.315   4.616  1.0767  0.7632  0.0673
   18PVA    O13 3016   1.975   5.397   4.722 -0.5086  0.1361 -1.0026
   18PVA    H76 3017   2.058   5.359   4.755 -1.6929 -5.5492 -3.4855
   18PVA    C39 3018   1.999   5.168   4.672 -0.4287 -0.0628  1.0461
   18PVA    H77 3019   1.945   5.088   4.620  2.1919 -0.4928 -1.2210
   18PVA    H78 3020   2.034   5.137   4.771 -2.7496  0.8882  2.2580
   18PVA    C40 3021   2.125   5.193   4.584 -0.7005 -0.7591 -1.0362
   18PVA    H79 3022   2.202   5.223   4.656 -2.6045  0.1764  0.7225
   18PVA    H80 3023   2.159   5.101   4.536 -2.1879 -1.0908 -1.5324
   18PVA    C41 3024   2.114   5.295   4.469  0.3964  0.2708  0.0385
   18PVA    H81 3025   2.100   5.393   4.517 -0.5063 -0.3591  1.1000
   18PVA    O14 3026   2.237   5.308   4.406  0.4887 -0.1774  0.4256
   18PVA    H82 3027   2.300   5.349   4.467  1.9960 -1.0261 -0.4996
   18PVA    C42 3028   1.995   5.270   4.364 -0.1303  0.5351  0.3685
   18PVA    H83 3029   2.039   5.255   4.265 -1.3887 -0.1461 -0.1056
   18PVA    H84 3030   1.953   5.172   4.389  0.3423  0.1321 -0.4059
   18PVA    C43 3031   1.899   5.395   4.361  1.0435 -0.0501  0.4817
   18PVA    H85 3032   1.975   5.471   4.338  2.1386 -0.8157  1.4454
   18PVA    H86 3033   1.863   5.439   4.454 -2.8314 -2.2195  0.2152
   18PVA    C44 3034   1.772   5.374   4.271  0.6196 -0.5453 -0.4362
   18PVA    H87 3035   1.703   5.329   4.342  0.4890 -2.2385 -1.5829
   18PVA    O15 3036   1.727   5.497   4.233 -0.9178 -0.7689  0.6558
   18PVA    H88 3037   1.666   5.478   4.160 -0.7756  0.8080  0.0895
   18PVA    C45 3038   1.774   5.272   4.158  1.1355 -0.2360  0.6407
   18PVA    H89 3039   1.839   5.287   4.071 -2.7032  0.1123 -2.4729
   18PVA    H90 3040   1.819   5.180   4.196  0.9601 -3.0928 -5.0675
   18PVA    C46 3041   1.632   5.237   4.111  1.2403 -0.4502 -0.1127
   18PVA    H91 3042   1.610   5.130   4.106 -1.8835  0.0808 -5.1615
   18PVA    H92 3043   1.574   5.256   4.202  0.9773  1.7906 -0.6768
   18PVA    C47 3044   1.576   5.317   3.989  0.1930 -0.3816 -0.8276
   18PVA    H93 3045   1.658   5.297   3.920 -0.3462 -0.8290 -1.3566
   18PVA    O16 3046   1.555   5.443   4.032 -0.4827 -0.9694 -0.1141
   18PVA    H94 3047   1.557   5.472   3.939  1.1472  1.6704  0.6296
   18PVA    C48 3048   1.440   5.273   3.927 -0.8315 -0.0175 -0.0326
   18PVA    H95 3049   1.455   5.164   3.932  1.3955  0.0515 -2.7755
   18PVA    H96 3050   1.359   5.294   3.997  0.0783  2.3577  0.4024
   18PVA    C49 3051   1.400   5.300   3.778 -1.0308 -0.9068 -1.6106
   18PVA    H97 3052   1.299   5.267   3.750 -1.1733  0.9132 -3.4795
   18PVA    H98 3053   1.460   5.242   3.707 -1.5614 -1.1235 -1.8875
   18PVA    C50 3054   1.420   5.450   3.742  0.3031 -0.9449  0.2912
   18PVA    H99 3055   1.358   5.511   3.809 -0.7015 -1.4759 -0.1297
   18PVA    O17 3056   1.556   5.492   3.744  0.5637  0.0852 -0.4029
   18PVA   H100 3057   1.578   5.564   3.683 -1.7477  1.1364 -0.1069
   18PVA    C51 3058   1.358   5.479   3.592 -0.4491  0.2695 -1.1691
   18PVA   H101 3059   1.270   5.417   3.572  0.0276 -0.3784 -1.3247
   18PVA   H102 3060   1.421   5.434   3.513  2.2874  0.6870  0.6254
   19PVA     C1 3061   7.602   7.229   5.416 -1.0066  0.0368 -0.7954
   19PVA     H1 3062   7.545   7.169   5.344  1.4784 -0.9382 -2.0391
   19PVA     H2 3063   7.683   7.290   5.374 -2.5490  2.1420 -0.8812
   19PVA     C2 3064   7.495   7.342   5.470  0.1641  0.4007  1.0712
   19PVA     H3 3065   7.547   7.405   5.543  1.0120  3.6490 -2.0451
   19PVA     O1 3066   7.460   7.394   5.344  0.4070  0.5252  0.8554
   19PVA     H4 3067   7.475   7.490   5.347  0.8504  0.4413  1.9925
   19PVA     C3 3068   7.373   7.278   5.532  0.4539  0.2752  0.6605
   19PVA     H5 3069   7.405   7.207   5.610 -3.4907 -2.4674  0.0396
   19PVA     H6 3070   7.314   7.223   5.458  0.8519  1.6625 -0.7495
   19PVA     C4 3071   7.282   7.389   5.598 -0.0529  1.1754  0.2809
   19PVA     H7 3072   7.352   7.463   5.639  0.0529  1.9019 -1.1410
   19PVA     H8 3073   7.223   7.428   5.514  0.6259 -1.6085 -1.6256
   19PVA     C5 3074   7.173   7.350   5.702 -0.1375  0.4926 -0.7506
   19PVA     H9 3075   7.096   7.304   5.639  0.1516 -2.9172  1.1516
   19PVA     O2 3076   7.205   7.243   5.793 -1.0961 -0.1968 -0.1272
   19PVA    H10 3077   7.250   7.295   5.862  2.6449 -0.0093 -2.4136
   19PVA     C6 3078   7.128   7.466   5.791  0.0707  0.0512 -0.4817
   19PVA    H11 3079   7.214   7.487   5.856  1.1396 -2.2246 -1.1009
   19PVA    H12 3080   7.133   7.547   5.717 -0.5458  0.0654 -0.5139
   19PVA     C7 3081   6.991   7.462   5.841  0.8432  0.4610  0.0802
   19PVA    H13 3082   6.974   7.375   5.906 -4.9810  0.4298 -0.9498
   19PVA    H14 3083   6.921   7.458   5.756  0.9242  0.4785  0.0128
   19PVA     C8 3084   6.970   7.588   5.924 -0.6722 -0.3677 -0.4075
   19PVA    H15 3085   7.029   7.669   5.879  2.6049 -0.7523  2.7695
   19PVA     O3 3086   7.028   7.568   6.061 -0.6655  0.8781  0.2405
   19PVA    H16 3087   6.937   7.555   6.094 -2.9075 -4.1961 -5.9163
   19PVA     C9 3088   6.823   7.630   5.935 -0.9605  0.2541  0.7768
   19PVA    H17 3089   6.772   7.601   5.842  2.1176 -2.5743 -0.2430
   19PVA    H18 3090   6.789   7.559   6.011  2.8986 -2.4405  0.3128
   19PVA    C10 3091   6.817   0.099   5.974  0.4433 -0.1216 -0.6046
   19PVA    H19 3092   6.895   0.157   5.923  1.3333 -2.4157 -2.0067
   19PVA    H20 3093   6.851   0.111   6.078  0.5675 -2.4019 -0.3267
   19PVA    C11 3094   6.678   0.160   5.959 -0.0622 -0.0833 -0.2052
   19PVA    H21 3095   6.618   0.086   6.014 -1.0154 -2.0211 -3.5893
   19PVA     O4 3096   6.618   0.142   5.833 -0.2695  0.5802  0.7487
   19PVA    H22 3097   6.524   0.158   5.853 -0.9488  0.0424 -1.6113
   19PVA    C12 3098   6.681   0.318   6.011 -0.9353  1.5353  1.4651
   19PVA    H23 3099   6.730   0.324   6.109 -1.2817 -3.3885  2.2279
   19PVA    H24 3100   6.721   0.382   5.932 -1.1472 -1.2138 -1.0524
   19PVA    C13 3101   6.539   0.356   6.058  0.1251  0.2454  0.9837
   19PVA    H25 3102   6.503   0.263   6.104  0.1078 -0.1483  0.1858
   19PVA    H26 3103   6.492   0.372   5.960 -0.6992  1.9267  1.6027
   19PVA    C14 3104   6.517   0.489   6.138 -1.2113  0.4114  0.1426
   19PVA    H27 3105   6.554   0.478   6.241 -3.6751  0.4199  1.0799
   19PVA     O5 3106   6.590   0.602   6.079  0.7460 -0.3331  0.9486
   19PVA    H28 3107   6.583   0.604   5.982  0.2757  0.0971  0.9878
   19PVA    C15 3108   6.364   0.527   6.166  0.0295  0.7837 -0.2563
   19PVA    H29 3109   6.324   0.451   6.234  6.0417 -1.4360  1.4990
   19PVA    H30 3110   6.312   0.534   6.070 -2.0288  1.9485  0.8615
   19PVA    C16 3111   6.361   0.660   6.250 -0.2974 -0.6498  0.1735
   19PVA    H31 3112   6.430   0.654   6.335 -0.9721 -0.4678  0.7489
   19PVA    H32 3113   6.418   0.734   6.194  1.0354 -4.1185 -3.5149
   19PVA    C17 3114   6.225   0.721   6.291  1.0025 -1.2407 -0.0753
   19PVA    H33 3115   6.235   0.791   6.375  0.0637  2.4362 -2.7791
   19PVA     O6 3116   6.137   0.612   6.341 -0.0704 -0.0345  0.0412
   19PVA    H34 3117   6.062   0.597   6.281  0.7753 -3.4288 -0.3798
   19PVA    C18 3118   6.159   0.808   6.182 -1.0450 -0.2448 -1.3762
   19PVA    H35 3119   6.215   0.897   6.152  0.0106 -0.9762 -1.6357
   19PVA    H36 3120   6.180   0.757   6.087 -0.7366  0.1386 -1.5128
   19PVA    C19 3121   6.012   0.857   6.195  0.7326  0.2991  0.1260
   19PVA    H37 3122   5.978   0.862   6.299 -0.6928  2.5721 -0.3854
   19PVA    H38 3123   5.937   0.787   6.154 -0.8579 -0.2923  3.6662
   19PVA    C20 3124   5.982   0.999   6.140  0.1170 -0.0885 -0.1224
   19PVA    H39 3125   6.048   1.054   6.208 -0.1924 -1.2621  1.1696
   19PVA     O7 3126   6.032   1.004   6.007  1.6849 -0.7615 -0.2051
   19PVA    H40 3127   5.964   1.003   5.937  1.4936  0.9598 -0.0902
   19PVA    C21 3128   5.845   1.064   6.145  0.1991  0.8995  0.1947
   19PVA    H41 3129   5.769   1.009   6.089  0.0473 -0.8864  2.0254
   19PVA    H42 3130   5.840   1.163   6.097  3.5497  3.4725  4.3565
   19PVA    C22 3131   5.779   1.095   6.282 -0.1595  0.5978 -0.5925
   19PVA    H43 3132   5.714   1.019   6.328  0.0997 -0.9063 -2.5877
   19PVA    H44 3133   5.858   1.124   6.353 -2.1957 -1.3205  2.7340
   19PVA    C23 3134   5.677   1.213   6.277  0.9181  0.2902  0.3118
   19PVA    H45 3135   5.703   1.286   6.199 -2.6246  2.8916  1.3283
   19PVA     O8 3136   5.545   1.151   6.245 -0.7820 -0.4991 -0.2228
   19PVA    H46 3137   5.524   1.181   6.156  2.9997 -2.1840 -1.9546
   19PVA    C24 3138   5.666   1.287   6.411 -0.6876 -0.3470  0.6778
   19PVA    H47 3139   5.619   1.207   6.470 -5.0170  0.6892 -0.9367
   19PVA    H48 3140   5.763   1.309   6.458  0.7761  1.4032 -2.7731
   19PVA    C25 3141   5.577   1.411   6.434  0.9634  0.7711  0.6411
   19PVA    H49 3142   5.493   1.374   6.494  0.1563  0.7594 -0.4537
   19PVA    H50 3143   5.530   1.438   6.339  0.7528  1.7425  1.0076
   19PVA    C26 3144   5.620   1.540   6.505  1.3188  0.6946 -0.4223
   19PVA    H51 3145   5.630   1.517   6.612  4.4377 -3.3848 -1.3356
   19PVA     O9 3146   5.743   1.591   6.451  0.0872 -0.4106 -0.4667
   19PVA    H52 3147   5.797   1.581   6.531 -1.2535  0.1107  0.5236
   19PVA    C27 3148   5.508   1.641   6.494  0.6106  0.1302 -0.6585
   19PVA    H53 3149   5.432   1.619   6.570  2.4758 -1.5696  0.8157
   19PVA    H54 3150   5.456   1.636   6.398 -0.1447 -0.8624 -0.2256
   19PVA    C28 3151   5.554   1.795   6.492  0.6105 -0.0081  0.9977
   19PVA    H55 3152   5.630   1.834   6.561  2.0550  0.0185 -0.5502
   19PVA    H56 3153   5.602   1.797   6.394  4.1132 -0.0247  2.5588
   19PVA    C29 3154   5.440   1.895   6.506  0.2467 -0.4364  0.7810
   19PVA    H57 3155   5.403   1.907   6.609 -0.4597  1.0385  0.3849
   19PVA    O10 3156   5.321   1.866   6.437 -0.5264  1.0054  0.4042
   19PVA    H58 3157   5.277   1.949   6.411  0.1028  1.2889  0.2356
   19PVA    C30 3158   5.502   2.034   6.462  0.1328  0.4761 -0.3932
   19PVA    H59 3159   5.586   2.073   6.520  0.6660  1.5274 -1.8244
   19PVA    H60 3160   5.540   2.052   6.361 -1.0689  1.9405 -0.6265
   19PVA    C31 3161   5.398   2.158   6.489 -0.5206  0.4426  0.0747
   19PVA    H61 3162   5.292   2.131   6.487 -0.1926 -0.8834 -1.2859
   19PVA    H62 3163   5.430   2.188   6.590  6.5063 -1.9239 -0.9048
   19PVA    C32 3164   5.401   2.278   6.391 -0.5793  0.7708 -0.7109
   19PVA    H63 3165   5.329   2.264   6.310  1.4362  1.5009 -2.7458
   19PVA    O11 3166   5.516   2.295   6.318 -0.2389 -0.5172  0.5125
   19PVA    H64 3167   5.594   2.246   6.349 -1.0987 -1.3204  1.4891
   19PVA    C33 3168   5.356   2.409   6.461 -0.3676  1.1189  0.8907
   19PVA    H65 3169   5.274   2.392   6.532 -1.3573  0.6886 -0.3375
   19PVA    H66 3170   5.441   2.448   6.519 -3.2350  2.2962  4.7097
   19PVA    C34 3171   5.338   2.532   6.364 -0.3965  0.6652  0.5436
   19PVA    H67 3172   5.284   2.491   6.278 -0.5924 -2.7912  2.1678
   19PVA    H68 3173   5.437   2.562   6.327  0.3664 -0.9644  1.1558
   19PVA    C35 3174   5.274   2.665   6.411 -1.2450  0.2504 -0.8387
   19PVA    H69 3175   5.334   2.691   6.499  0.3386 -3.3144 -0.7171
   19PVA    O12 3176   5.263   2.755   6.302 -0.6941 -0.5767 -0.0411
   19PVA    H70 3177   5.352   2.775   6.268 -0.5001 -1.1471  0.1259
   19PVA    C36 3178   5.134   2.662   6.491  0.3751  0.0368 -0.8571
   19PVA    H71 3179   5.150   2.602   6.581  5.5528  1.1351 -0.6858
   19PVA    H72 3180   5.125   2.755   6.548 -3.6142 -0.7453  0.0706
   19PVA    C37 3181   5.009   2.618   6.409  0.3042  0.6818  0.1925
   19PVA    H73 3182   5.006   2.673   6.314 -2.4989  2.4991  1.2068
   19PVA    H74 3183   5.034   2.520   6.366 -2.5733 -0.1528  0.1789
   19PVA    C38 3184   4.875   2.616   6.475  0.2027  0.0765  0.6235
   19PVA    H75 3185   4.837   2.717   6.496  2.7615  0.8128  2.0608
   19PVA    O13 3186   4.870   2.548   6.601 -0.2059  1.2786  0.0880
   19PVA    H76 3187   4.921   2.467   6.585  0.1819  1.1786  1.6642
   19PVA    C39 3188   4.751   2.558   6.383  0.1964  0.8578 -0.7171
   19PVA    H77 3189   4.776   2.473   6.318  1.2094  1.9959 -1.8537
   19PVA    H78 3190   4.716   2.641   6.320  0.1890  1.3702 -0.0385
   19PVA    C40 3191   4.629   2.516   6.470 -0.4896 -0.8653  0.1530
   19PVA    H79 3192   4.657   2.421   6.518 -1.1070 -0.9293  0.3921
   19PVA    H80 3193   4.610   2.597   6.541  1.7263  1.0878 -1.3030
   19PVA    C41 3194   4.504   2.504   6.372  0.4675 -0.4214  0.3953
   19PVA    H81 3195   4.519   2.532   6.267  1.5031 -1.9140  0.1222
   19PVA    O14 3196   4.466   2.372   6.370  0.3067 -0.5381 -0.3151
   19PVA    H82 3197   4.420   2.355   6.454 -0.9506  1.5678 -0.5157
   19PVA    C42 3198   4.387   2.589   6.413  0.1734  0.1052 -0.1013
   19PVA    H83 3199   4.304   2.530   6.455 -0.7975  0.7631 -1.0698
   19PVA    H84 3200   4.407   2.672   6.481 -2.2608 -0.2524  1.1653
   19PVA    C43 3201   4.308   2.623   6.290 -0.3047 -0.6700 -0.0143
   19PVA    H85 3202   4.264   2.530   6.254 -4.3525 -0.2443  3.0887
   19PVA    H86 3203   4.371   2.680   6.221  1.6623 -2.1385  0.4860
   19PVA    C44 3204   4.176   2.723   6.299 -0.5863 -0.9045 -1.0708
   19PVA    H87 3205   4.167   2.775   6.203  2.0241 -0.5678 -1.2039
   19PVA    O15 3206   4.059   2.661   6.346 -0.1721  0.1855  0.2531
   19PVA    H88 3207   3.985   2.659   6.282 -0.2605 -0.3080  0.3630
   19PVA    C45 3208   4.186   2.857   6.384  0.2759 -0.3728  1.3012
   19PVA    H89 3209   4.235   2.933   6.322  0.0138 -2.1841 -1.3044
   19PVA    H90 3210   4.261   2.827   6.457  1.8996  0.5261  0.0714
   19PVA    C46 3211   4.042   2.915   6.442 -0.1319 -0.0578 -0.2891
   19PVA    H91 3212   3.972   2.892   6.360 -1.1388 -4.0016  1.4512
   19PVA    H92 3213   4.000   2.855   6.524  3.5220  1.6807  3.2201
   19PVA    C47 3214   4.052   3.060   6.514 -0.8218  0.5740  0.0899
   19PVA    H93 3215   4.136   3.044   6.583 -1.0611 -3.9834 -0.3806
   19PVA    O16 3216   4.074   3.165   6.414 -0.2954  0.3072  0.0488
   19PVA    H94 3217   4.146   3.134   6.357 -0.5116 -2.8183  1.3009
   19PVA    C48 3218   3.944   3.107   6.617 -0.6819 -0.0472  0.8442
   19PVA    H95 3219   3.857   3.146   6.563 -1.1632  0.8513  2.2214
   19PVA    H96 3220   3.910   3.019   6.672 -4.7843  2.3848  2.6549
   19PVA    C49 3221   3.989   3.216   6.718  0.4307 -0.1129 -0.3536
   19PVA    H97 3222   4.019   3.304   6.660  1.8913  1.3918  2.4649
   19PVA    H98 3223   4.068   3.186   6.788  0.9266  1.3052 -0.2826
   19PVA    C50 3224   3.879   3.282   6.806 -0.1800 -0.7834 -0.7482
   19PVA    H99 3225   3.796   3.287   6.735 -0.6160 -1.3127 -0.2814
   19PVA    O17 3226   3.896   3.417   6.844  0.2402 -0.5141  1.2212
   19PVA   H100 3227   3.818   3.461   6.805 -0.8143 -1.8882  1.7186
   19PVA    C51 3228   3.827   3.208   6.935 -0.6328  0.0492  0.7299
   19PVA   H101 3229   3.792   3.267   7.021 -3.7476 -0.8780  0.2504
   19PVA   H102 3230   3.904   3.146   6.982 -0.4366  0.8318  1.4682
   20PVA     C1 3231   2.168   6.338   3.716 -0.2783 -0.8130 -0.5543
   20PVA     H1 3232   2.189   6.238   3.756  0.6267  1.0151  4.0717
   20PVA     H2 3233   2.257   6.367   3.658  2.1645  0.3935  3.4224
   20PVA     C2 3234   2.157   6.458   3.828 -1.2795 -0.0924  0.5580
   20PVA     H3 3235   2.050   6.481   3.831 -1.7769 -1.9842 -1.0052
   20PVA     O1 3236   2.231   6.572   3.783  0.5857 -0.2923 -1.0987
   20PVA     H4 3237   2.319   6.546   3.750  1.5363  3.0466 -1.5415
   20PVA     C3 3238   2.191   6.439   3.986 -0.4188 -0.0129  0.9478
   20PVA     H5 3239   2.299   6.424   4.001  0.1405  2.4551 -0.1398
   20PVA     H6 3240   2.147   6.348   4.029  2.8494 -1.4040  1.6506
   20PVA     C4 3241   2.153   6.567   4.078 -0.5361  0.0875 -0.8140
   20PVA     H7 3242   2.198   6.659   4.038 -1.5914 -0.4797 -3.5461
   20PVA     H8 3243   2.045   6.588   4.073 -1.6906 -4.8868 -3.9082
   20PVA     C5 3244   2.194   6.555   4.239  0.4862 -0.6064  0.3695
   20PVA     H9 3245   2.302   6.546   4.252  0.4657  0.3783  1.3483
   20PVA     O2 3246   2.128   6.431   4.286 -0.1338  0.6130  0.1139
   20PVA    H10 3247   2.081   6.393   4.210 -0.4369  1.9738 -0.4088
   20PVA     C6 3248   2.167   6.683   4.317  0.9449 -0.1739  0.5711
   20PVA    H11 3249   2.230   6.768   4.288 -1.1245  2.3386  2.8798
   20PVA    H12 3250   2.069   6.726   4.294  0.6540 -2.2393 -2.7769
   20PVA     C7 3251   2.185   6.671   4.470  0.8378  0.3748  0.0759
   20PVA    H13 3252   2.233   6.576   4.495  2.1126  0.1095 -2.9422
   20PVA    H14 3253   2.081   6.654   4.500  0.0139 -1.0368 -3.0757
   20PVA     C8 3254   2.246   6.787   4.542 -0.2661 -0.7188 -0.5247
   20PVA    H15 3255   2.222   6.874   4.479  1.3577 -1.3916 -2.1716
   20PVA     O3 3256   2.385   6.765   4.506 -0.4106  0.8677 -0.8270
   20PVA    H16 3257   2.398   6.675   4.471  1.8741  1.4716 -1.6914
   20PVA     C9 3258   2.222   6.834   4.693 -0.0351 -0.1657 -0.3992
   20PVA    H17 3259   2.230   6.747   4.760 -2.2097  0.1572  0.3440
   20PVA    H18 3260   2.123   6.878   4.711 -0.2552 -0.7841 -0.0539
   20PVA    C10 3261   2.312   6.954   4.750  0.1399  0.3623  1.1061
   20PVA    H19 3262   2.418   6.931   4.732  0.0529 -1.8842  2.9881
   20PVA    H20 3263   2.297   7.038   4.680 -0.6451  0.3161  1.2187
   20PVA    C11 3264   2.279   7.000   4.900 -0.2981 -0.6529 -0.7040
   20PVA    H21 3265   2.327   6.920   4.957 -1.9795 -2.6021 -1.9242
   20PVA     O4 3266   2.141   7.002   4.928  0.7053 -0.7443  0.3696
   20PVA    H22 3267   2.123   6.913   4.895  0.3414 -0.0177 -1.5592
   20PVA    C12 3268   2.361   7.123   4.962 -0.3493 -0.1445  0.6846
   20PVA    H23 3269   2.467   7.096   4.970 -0.9823 -2.3352  2.9939
   20PVA    H24 3270   2.365   7.214   4.900 -0.9708 -0.0493  0.7745
   20PVA    C13 3271   2.316   7.180   5.109 -0.3812 -0.1547 -0.4534
   20PVA    H25 3272   2.357   7.114   5.186  0.5934 -0.2519 -1.0355
   20PVA    H26 3273   2.210   7.154   5.101 -2.3260  5.1999  2.7340
   20PVA    C14 3274   2.307   7.335   5.146 -0.4059 -0.6501  0.5099
   20PVA    H27 3275   2.258   7.374   5.056  1.6516  2.3873  0.5718
   20PVA     O5 3276   2.423   7.419   5.157  0.1688  0.2170 -0.7894
   20PVA    H28 3277   2.407   7.459   5.245 -3.0900 -0.4398 -0.9468
   20PVA    C15 3278   2.226   7.370   5.266 -0.0648 -0.2636 -0.6902
   20PVA    H29 3279   2.268   7.341   5.363  0.4177 -1.8076 -1.3350
   20PVA    H30 3280   2.145   7.297   5.256  0.9059 -1.7861  1.6292
   20PVA    C16 3281   2.159   7.514   5.256 -0.0568  0.1517 -1.1332
   20PVA    H31 3282   2.240   7.588   5.267 -0.8620  0.7149  2.3267
   20PVA    H32 3283   2.118   7.528   5.155  1.4477  1.7994 -1.5804
   20PVA    C17 3284   2.040   7.556   5.360  0.1508 -0.5577  0.2517
   20PVA    H33 3285   1.973   7.472   5.379 -2.1220 -0.0713 -4.1518
   20PVA     O6 3286   2.107   7.581   5.480  0.7655 -1.2823 -0.9665
   20PVA    H34 3287   2.189   7.535   5.457  0.1650 -1.1069 -3.8664
   20PVA    C18 3288   1.946   7.681   5.314 -0.6063 -0.7581  0.4502
   20PVA    H35 3289   1.904   7.666   5.214  1.2277  2.2558 -0.9066
   20PVA    H36 3290   2.007   0.087   5.309 -0.9151 -0.4694  1.5743
   20PVA    C19 3291   1.836   0.037   5.410 -1.5220  0.4885 -0.1914
   20PVA    H37 3292   1.868   0.055   5.514 -7.7333  3.2422  1.7401
   20PVA    H38 3293   1.777   7.629   5.403 -4.0906  2.1221 -1.7155
   20PVA    C20 3294   1.736   0.157   5.376  0.7752 -0.2499 -1.4160
   20PVA    H39 3295   1.641   0.132   5.425  2.5116 -0.6920  2.0150
   20PVA     O7 3296   1.703   0.177   5.243  0.3237  0.2243 -0.6810
   20PVA    H40 3297   1.606   0.187   5.248 -0.1587 -3.4712  1.1104
   20PVA    C21 3298   1.756   0.306   5.432 -0.4001 -0.4249 -0.0910
   20PVA    H41 3299   1.865   0.313   5.443 -0.5871 -0.7023  2.6557
   20PVA    H42 3300   1.690   0.326   5.517 -1.9405  3.6264 -1.9581
   20PVA    C22 3301   1.712   0.427   5.334  0.4495  0.1997  0.0708
   20PVA    H43 3302   1.732   0.424   5.226  0.2272  0.1099  0.0307
   20PVA    H44 3303   1.603   0.431   5.343  0.4139  2.5158 -0.6796
   20PVA    C23 3304   1.744   0.569   5.397 -0.0501  0.5258  0.4993
   20PVA    H45 3305   1.659   0.610   5.453  0.8449  0.9804  1.5817
   20PVA     O8 3306   1.845   0.552   5.505  0.4516  0.0362 -0.3234
   20PVA    H46 3307   1.932   0.532   5.466  0.1015  0.1330 -1.1672
   20PVA    C24 3308   1.796   0.677   5.288  0.7441 -0.0361 -0.2753
   20PVA    H47 3309   1.872   0.646   5.216  1.1144 -0.2675  0.2132
   20PVA    H48 3310   1.707   0.696   5.225  1.9404  1.7704 -1.5354
   20PVA    C25 3311   1.840   0.827   5.350  0.1151 -0.5135 -0.1575
   20PVA    H49 3312   1.871   0.824   5.456 -1.8793  2.6446  0.6531
   20PVA    H50 3313   1.742   0.877   5.359  1.4534  3.3405 -3.8951
   20PVA    C26 3314   1.942   0.912   5.258 -0.3938 -1.0359  0.6138
   20PVA    H51 3315   2.031   0.851   5.237 -1.5762 -2.2587 -1.1570
   20PVA     O9 3316   1.882   0.934   5.142  0.5715  0.4669  0.3622
   20PVA    H52 3317   1.793   0.893   5.141  0.2569  1.1432 -0.2826
   20PVA    C27 3318   1.987   1.056   5.318  1.1890  0.0131 -0.4260
   20PVA    H53 3319   1.896   1.072   5.377  0.4011 -3.1707 -0.6285
   20PVA    H54 3320   2.062   1.054   5.398  0.5171 -0.9576  0.1968
   20PVA    C28 3321   2.034   1.175   5.220  0.0118 -0.9011 -0.1884
   20PVA    H55 3322   2.121   1.121   5.180 -1.7182 -1.3738 -3.7590
   20PVA    H56 3323   1.972   1.186   5.130  0.1520  2.7934 -0.0026
   20PVA    C29 3324   2.078   1.317   5.280 -0.3052  0.0323  0.4467
   20PVA    H57 3325   2.066   1.300   5.387 -2.5287  3.9241  1.0055
   20PVA    O10 3326   1.979   1.420   5.245 -0.6456  0.4309 -0.1180
   20PVA    H58 3327   2.010   1.482   5.177 -0.6298  0.9299  0.3388
   20PVA    C30 3328   2.219   1.371   5.245  0.5383  0.0637 -0.4443
   20PVA    H59 3329   2.282   1.283   5.260 -3.7862 -3.4464 -0.9202
   20PVA    H60 3330   2.219   1.391   5.137  0.0046  1.3161 -0.2396
   20PVA    C31 3331   2.279   1.496   5.330  0.1457  0.4048  1.2980
   20PVA    H61 3332   2.253   1.497   5.437 -1.8294 -3.9197  1.0741
   20PVA    H62 3333   2.225   1.583   5.290  1.0193  0.5551  0.3948
   20PVA    C32 3334   2.432   1.533   5.306  0.6024  0.1430 -1.5087
   20PVA    H63 3335   2.480   1.439   5.336 -1.8868 -0.3666  1.3715
   20PVA    O11 3336   2.446   1.560   5.168  0.3651  0.4127 -0.3752
   20PVA    H64 3337   2.510   1.495   5.134  0.8689  1.2956 -1.1836
   20PVA    C33 3338   2.491   1.656   5.371 -0.3050 -0.0690  0.5186
   20PVA    H65 3339   2.444   1.689   5.465  0.9413  0.1553  1.0814
   20PVA    H66 3340   2.454   1.724   5.294 -0.6172 -2.0574 -1.1784
   20PVA    C34 3341   2.639   1.641   5.386 -0.2035 -0.8007  0.7123
   20PVA    H67 3342   2.656   1.566   5.464  0.9982 -1.2464  0.0484
   20PVA    H68 3343   2.684   1.611   5.291  0.2296  4.2959 -0.9641
   20PVA    C35 3344   2.719   1.764   5.432 -0.1693 -0.6536  0.4363
   20PVA    H69 3345   2.671   1.790   5.528 -0.6162 -1.0466  0.3239
   20PVA    O12 3346   2.713   1.880   5.343  0.7691 -0.1590 -0.2153
   20PVA    H70 3347   2.617   1.895   5.329  0.0267 -2.3117  1.9142
   20PVA    C36 3348   2.872   1.735   5.444  0.2754 -0.6312  0.0518
   20PVA    H71 3349   2.871   1.662   5.525 -1.5309 -0.5594  0.1331
   20PVA    H72 3350   2.902   1.681   5.353 -3.1042 -2.4967 -0.1084
   20PVA    C37 3351   2.971   1.860   5.465  0.9089  0.2217  1.1805
   20PVA    H73 3352   2.917   1.913   5.544  2.5706  0.6807  2.0576
   20PVA    H74 3353   2.975   1.921   5.374 -0.2171 -0.0761  0.9105
   20PVA    C38 3354   3.125   1.859   5.501 -0.5696  0.7573 -0.4296
   20PVA    H75 3355   3.157   1.827   5.401 -2.4134  1.7220 -1.3894
   20PVA    O13 3356   3.167   1.757   5.589 -0.4571  0.1478  0.4156
   20PVA    H76 3357   3.264   1.763   5.588 -0.4266 -0.3516 -0.6064
   20PVA    C39 3358   3.206   1.994   5.523 -1.1783  0.6354  0.0849
   20PVA    H77 3359   3.273   1.976   5.438 -1.5796  1.3076 -0.3863
   20PVA    H78 3360   3.149   2.083   5.495 -1.0768 -0.2060 -3.1612
   20PVA    C40 3361   3.294   2.023   5.654  1.4725 -0.5134  0.0862
   20PVA    H79 3362   3.225   2.054   5.733 -2.4383  3.8164 -4.3507
   20PVA    H80 3363   3.331   1.923   5.682  0.4628 -0.5112  1.5003
   20PVA    C41 3364   3.399   2.136   5.665  0.8773 -0.8989 -1.1462
   20PVA    H81 3365   3.343   2.230   5.660 -2.0569 -2.4429 -0.2417
   20PVA    O14 3366   3.493   2.151   5.556  0.7330 -0.6007 -0.5489
   20PVA    H82 3367   3.452   2.135   5.469 -0.0652  2.7930 -0.9222
   20PVA    C42 3368   3.464   2.133   5.816  0.6604  0.5405 -0.2816
   20PVA    H83 3369   3.394   2.130   5.900  1.1044  4.5551  0.4329
   20PVA    H84 3370   3.519   2.039   5.834 -0.3725  0.0929  0.6198
   20PVA    C43 3371   3.545   2.263   5.847 -1.2020  0.5466 -0.7437
   20PVA    H85 3372   3.467   2.339   5.855 -0.1710  1.4282  3.5721
   20PVA    H86 3373   3.615   2.283   5.764 -2.0450 -2.1664 -2.2535
   20PVA    C44 3374   3.643   2.286   5.972 -0.1056 -0.0723  0.2901
   20PVA    H87 3375   3.748   2.286   5.937 -1.2274  0.0002 -3.6020
   20PVA    O15 3376   3.612   2.177   6.052 -0.5932  0.5016  0.7747
   20PVA    H88 3377   3.536   2.208   6.104 -1.1544 -2.5584  1.9971
   20PVA    C45 3378   3.633   2.417   6.047  0.9271 -0.7554 -0.7971
   20PVA    H89 3379   3.529   2.420   6.081  0.8033  0.0104 -1.2290
   20PVA    H90 3380   3.636   2.500   5.975  0.5304 -0.5333 -0.5602
   20PVA    C46 3381   3.712   2.453   6.178 -0.0058  0.8506 -0.4003
   20PVA    H91 3382   3.679   2.385   6.257  0.4064 -0.7794 -1.5863
   20PVA    H92 3383   3.813   2.419   6.150  0.2191 -0.4464  1.7687
   20PVA    C47 3384   3.693   2.608   6.207  0.0065 -0.2359 -0.4712
   20PVA    H93 3385   3.592   2.636   6.174  1.2051  5.8564 -0.3062
   20PVA    O16 3386   3.800   2.674   6.156 -0.4178 -0.3623 -0.4919
   20PVA    H94 3387   3.811   2.649   6.063  2.3041 -0.2427 -0.2773
   20PVA    C48 3388   3.695   2.662   6.358  0.5058 -0.0213  0.2712
   20PVA    H95 3389   3.660   2.584   6.426 -0.5169 -0.2639 -0.5143
   20PVA    H96 3390   3.800   2.684   6.384  1.5654 -2.9336 -1.0363
   20PVA    C49 3391   3.643   2.808   6.393 -0.9473  0.6916 -0.0803
   20PVA    H97 3392   3.540   2.834   6.368 -1.3510  1.2680  1.9798
   20PVA    H98 3393   3.703   2.880   6.336 -1.7322 -1.1642 -3.5017
   20PVA    C50 3394   3.664   2.857   6.546  0.5867 -0.0481 -0.4948
   20PVA    H99 3395   3.748   2.927   6.562 -1.4223  2.0601  1.5307
   20PVA    O17 3396   3.704   2.749   6.625  0.0962 -0.6369  0.2842
   20PVA   H100 3397   3.633   2.683   6.616  0.7399 -1.2654 -0.2915
   20PVA    C51 3398   3.541   2.923   6.626  0.5396  0.0221 -0.4677
   20PVA   H101 3399   3.468   2.841   6.636  0.0017  0.5498  0.0130
   20PVA   H102 3400   3.492   3.002   6.568  0.5930 -0.5482 -1.2963
   21PVA     C1 3401   2.047   6.255   3.207  0.2038 -0.8016  0.7348
   21PVA     H1 3402   2.029   6.151   3.178  5.1761 -2.2858  1.9217
   21PVA     H2 3403   1.978   6.319   3.151  1.3904  1.3658  1.6239
   21PVA     C2 3404   2.192   6.283   3.179  0.2968  0.0044  0.8271
   21PVA     H3 3405   2.253   6.210   3.233  1.7038  1.9255  1.9851
   21PVA     O1 3406   2.232   6.415   3.221  0.0174 -0.3202  0.3270
   21PVA     H4 3407   2.327   6.402   3.233  0.0797  0.3901  0.6109
   21PVA     C3 3408   2.242   6.264   3.023  0.6791 -0.4127 -0.5975
   21PVA     H5 3409   2.197   6.331   2.948  1.2320 -1.3980 -1.8557
   21PVA     H6 3410   2.207   6.168   2.984 -2.9627  0.9158 -1.0329
   21PVA     C4 3411   2.394   6.290   2.999  0.5464  0.6615  0.6691
   21PVA     H7 3412   2.428   6.389   3.033  2.0051 -0.6676  3.3769
   21PVA     H8 3413   2.452   6.229   3.069  0.0393 -0.1292  0.4153
   21PVA     C5 3414   2.467   6.286   2.846 -1.2261 -0.0209 -0.5589
   21PVA     H9 3415   2.414   6.362   2.786 -0.1164  1.1176 -0.1500
   21PVA     O2 3416   2.448   6.156   2.803  0.0503 -0.2256  0.3067
   21PVA    H10 3417   2.448   6.171   2.706  2.4585  2.3958  0.5999
   21PVA     C6 3418   2.621   6.300   2.865 -0.4219  0.3233 -1.3308
   21PVA    H11 3419   2.638   6.403   2.899  0.9404 -0.7226  1.4138
   21PVA    H12 3420   2.653   6.248   2.956 -0.7426  2.1955 -0.1009
   21PVA     C7 3421   2.708   6.262   2.743 -0.1383  0.7111 -0.9608
   21PVA    H13 3422   2.696   6.337   2.664  0.1506 -2.5218 -4.3946
   21PVA    H14 3423   2.682   6.162   2.705  2.4018  0.3385 -1.9425
   21PVA     C8 3424   2.858   6.246   2.781 -0.9984 -0.0726  0.2176
   21PVA    H15 3425   2.864   6.182   2.870 -2.0872  3.2741  2.8718
   21PVA     O3 3426   2.904   6.371   2.827  0.3173  0.9204  0.0673
   21PVA    H16 3427   2.999   6.375   2.847 -0.0736 -0.1387  2.3883
   21PVA     C9 3428   2.938   6.185   2.665  0.2677 -0.5373 -0.0547
   21PVA    H17 3429   2.949   6.077   2.685 -0.4715 -0.4891  0.6639
   21PVA    H18 3430   2.889   6.195   2.568  1.9893 -3.2676 -1.3149
   21PVA    C10 3431   3.081   6.245   2.638 -1.3068  0.7916  1.2178
   21PVA    H19 3432   3.072   6.341   2.587  0.1084  1.4475  2.1240
   21PVA    H20 3433   3.139   6.259   2.731  1.5679  0.1831 -0.3688
   21PVA    C11 3434   3.161   6.142   2.540 -0.6458 -0.0048 -0.9963
   21PVA    H21 3435   3.110   6.046   2.556 -4.4280  2.2220  1.9338
   21PVA     O4 3436   3.287   6.141   2.600 -0.4593  0.2201  0.4562
   21PVA    H22 3437   3.331   6.077   2.541 -0.9822  0.1774  0.1089
   21PVA    C12 3438   3.209   6.194   2.400  1.1651  0.0319 -0.5642
   21PVA    H23 3439   3.133   6.255   2.349 -0.4143 -0.8892  0.5954
   21PVA    H24 3440   3.294   6.262   2.405 -0.2772  1.9695 -1.2152
   21PVA    C13 3441   3.266   6.083   2.306 -0.4694  0.1511  0.6699
   21PVA    H25 3442   3.238   5.982   2.340  1.8141  0.2528  3.1294
   21PVA    H26 3443   3.375   6.073   2.313 -0.4346 -4.4968 -2.2900
   21PVA    C14 3444   3.233   6.089   2.155 -0.2771 -1.1726  0.0537
   21PVA    H27 3445   3.149   6.019   2.147  0.3385 -1.7368 -1.9944
   21PVA     O5 3446   3.179   6.211   2.110 -0.2483 -0.0593  0.0512
   21PVA    H28 3447   3.133   6.199   2.025 -1.9978 -2.7760  1.2457
   21PVA    C15 3448   3.372   6.036   2.085 -0.1718  0.0343  1.0572
   21PVA    H29 3449   3.364   5.931   2.054  4.5666 -1.5788  4.3079
   21PVA    H30 3450   3.463   6.030   2.145  0.6949 -3.0777 -0.3360
   21PVA    C16 3451   3.435   6.089   1.947  0.8937 -1.1937  0.0281
   21PVA    H31 3452   3.346   6.087   1.883  1.1856  0.2188 -0.4405
   21PVA    H32 3453   3.462   6.190   1.979 -5.7776  1.7817 -1.9880
   21PVA    C17 3454   3.548   6.003   1.891  0.7336  0.2817 -1.1292
   21PVA    H33 3455   3.611   5.964   1.971  0.2321  0.8825 -0.4262
   21PVA     O6 3456   3.493   5.873   1.841  0.2286  0.1576  0.0842
   21PVA    H34 3457   3.422   5.891   1.777  0.2024 -1.1844 -0.2816
   21PVA    C18 3458   3.631   6.053   1.764  0.3251 -0.4863 -0.7033
   21PVA    H35 3459   3.552   6.039   1.690 -0.1902 -2.5933  0.1808
   21PVA    H36 3460   3.651   6.160   1.778 -1.2949 -0.1000 -1.1608
   21PVA    C19 3461   3.760   5.980   1.716 -1.8435  0.2652 -0.3656
   21PVA    H37 3462   3.749   5.872   1.701 -0.9160  0.4814 -3.2363
   21PVA    H38 3463   3.845   5.987   1.784 -2.1560  0.7356 -0.0156
   21PVA    C20 3464   3.815   6.029   1.569  1.1579  0.7614  0.6189
   21PVA    H39 3465   3.814   6.138   1.556 -1.7114  0.4985 -2.9114
   21PVA     O7 3466   3.730   5.966   1.464 -0.8055  0.1003 -0.3588
   21PVA    H40 3467   3.708   5.886   1.516 -2.6269  2.1525  2.3211
   21PVA    C21 3468   3.964   5.985   1.553 -0.9016 -0.5868  0.0604
   21PVA    H41 3469   4.015   6.032   1.638 -3.0480 -2.4470  2.5373
   21PVA    H42 3470   3.970   5.878   1.575 -1.2651 -0.4604  0.7876
   21PVA    C22 3471   4.029   5.998   1.412  0.4271 -0.1198  0.6443
   21PVA    H43 3472   3.965   6.050   1.340  1.4481 -2.3678 -2.0743
   21PVA    H44 3473   4.026   5.905   1.354  2.2750  0.2027 -0.0499
   21PVA    C23 3474   4.179   6.047   1.408  0.8128  0.0150 -0.3668
   21PVA    H45 3475   4.219   6.001   1.499 -0.0781  0.1899  0.1300
   21PVA     O8 3476   4.176   6.190   1.411  1.0077  0.4141  0.3962
   21PVA    H46 3477   4.158   6.222   1.321 -0.3524 -1.0712  0.1175
   21PVA    C24 3478   4.258   6.014   1.288 -1.2900  0.0961  0.7849
   21PVA    H47 3479   4.259   5.904   1.282  2.3800  0.0669 -1.4700
   21PVA    H48 3480   4.208   6.056   1.200 -1.8341  0.3087  1.1900
   21PVA    C25 3481   4.402   6.051   1.293 -0.0989 -0.6382  0.3956
   21PVA    H49 3482   4.456   5.998   1.373 -1.2540  2.6602  3.6666
   21PVA    H50 3483   4.403   6.155   1.331 -0.0971 -1.2912  2.3170
   21PVA    C26 3484   4.483   6.042   1.163  0.4589  0.2775 -0.4606
   21PVA    H51 3485   4.420   6.110   1.104 -0.8462  1.8597  2.5096
   21PVA     O9 3486   4.464   5.911   1.093  0.3475 -0.8632  0.2800
   21PVA    H52 3487   4.408   5.848   1.143 -3.1626 -0.9271 -3.2428
   21PVA    C27 3488   4.639   6.087   1.137 -0.4275 -0.4292 -1.2122
   21PVA    H53 3489   4.720   6.052   1.202  1.8343  3.1065 -1.8390
   21PVA    H54 3490   4.642   6.196   1.149  0.3852 -0.5348 -0.2702
   21PVA    C28 3491   4.702   6.064   0.989 -0.0772  1.0819  0.1709
   21PVA    H55 3492   4.677   5.958   0.975 -3.3999  1.2906  3.0177
   21PVA    H56 3493   4.647   6.115   0.910 -1.3682  0.8331  0.8884
   21PVA    C29 3494   4.858   6.102   0.971  0.6904  0.5830 -0.6650
   21PVA    H57 3495   4.914   6.049   1.049 -1.4981  1.0192  1.2953
   21PVA    O10 3496   4.897   6.015   0.866 -0.2498 -0.7292  0.8817
   21PVA    H58 3497   4.923   5.935   0.915  1.9086 -0.3001  0.5154
   21PVA    C30 3498   4.900   6.243   0.958 -0.4633 -0.8409 -0.0816
   21PVA    H59 3499   4.851   6.277   1.050 -0.5355 -0.8978 -0.0991
   21PVA    H60 3500   4.848   6.293   0.875  5.3478  2.2995 -2.4391
   21PVA    C31 3501   5.055   6.273   0.937 -0.3347  1.0560 -0.1292
   21PVA    H61 3502   5.127   6.193   0.960 -2.8269 -1.2201  0.2645
   21PVA    H62 3503   5.078   6.291   0.832  0.7857  1.0325  0.0930
   21PVA    C32 3504   5.125   6.400   0.980  1.0311 -0.1628 -0.0097
   21PVA    H63 3505   5.221   6.400   0.927  0.3289  0.7477 -1.3508
   21PVA    O11 3506   5.045   6.510   0.944  0.1870  0.7879 -0.5614
   21PVA    H64 3507   5.083   6.598   0.962 -3.2559  2.7579 -1.8624
   21PVA    C33 3508   5.160   6.418   1.137  0.0149  0.6173 -0.2077
   21PVA    H65 3509   5.132   6.322   1.180  0.9685 -0.0746 -1.0823
   21PVA    H66 3510   5.104   6.497   1.189 -1.1172 -1.0948  1.2624
   21PVA    C34 3511   5.304   6.456   1.193  0.1536  0.0819  0.4899
   21PVA    H67 3512   5.389   6.405   1.147  1.0339  1.1020  0.9267
   21PVA    H68 3513   5.328   6.562   1.177  3.1018 -0.1306  2.5234
   21PVA    C35 3514   5.326   6.454   1.348  0.3800 -0.5276 -0.0834
   21PVA    H69 3515   5.284   6.358   1.382  2.9426 -0.9846  2.1486
   21PVA    O12 3516   5.260   6.573   1.389  0.7427  0.5746 -0.2690
   21PVA    H70 3517   5.290   6.648   1.335  0.2875 -1.6170 -3.8864
   21PVA    C36 3518   5.479   6.453   1.387 -0.8285 -0.6476  0.0059
   21PVA    H71 3519   5.523   6.357   1.355 -0.4860 -1.4937  2.7981
   21PVA    H72 3520   5.537   6.515   1.318  1.2126  1.6056  3.4518
   21PVA    C37 3521   5.540   6.479   1.531 -0.4732  0.6008 -0.7197
   21PVA    H73 3522   5.641   6.446   1.504  0.1115  1.6902  0.0564
   21PVA    H74 3523   5.524   6.415   1.620 -0.2786 -0.4285 -1.4031
   21PVA    C38 3524   5.570   6.618   1.589 -1.0867  0.0671  0.2996
   21PVA    H75 3525   5.533   6.694   1.518  2.0873  3.0566  1.5761
   21PVA    O13 3526   5.515   6.644   1.718  0.8328 -0.6153  0.4698
   21PVA    H76 3527   5.517   6.741   1.717  1.8056 -0.6102  1.1968
   21PVA    C39 3528   5.720   6.660   1.628 -0.1896  0.9540  0.1788
   21PVA    H77 3529   5.783   6.631   1.544  0.8514  1.1829  0.8622
   21PVA    H78 3530   5.749   6.580   1.698 -0.0968 -0.6220 -1.5717
   21PVA    C40 3531   5.749   6.805   1.667 -0.2709  0.7179 -0.5835
   21PVA    H79 3532   5.841   6.797   1.727 -0.9986 -2.1347  0.2908
   21PVA    H80 3533   5.674   6.850   1.732 -1.3539 -1.7091 -0.0820
   21PVA    C41 3534   5.778   6.892   1.545  0.3933 -0.5995 -1.0200
   21PVA    H81 3535   5.680   6.903   1.497  1.1214 -1.0120 -2.6645
   21PVA    O14 3536   5.856   6.823   1.453 -0.2066 -0.6737  0.5939
   21PVA    H82 3537   5.946   6.837   1.489 -1.0387 -0.7806  2.8381
   21PVA    C42 3538   5.836   7.032   1.573 -0.5768 -0.2184 -0.2217
   21PVA    H83 3539   5.777   7.083   1.650 -1.9213  3.4491 -3.3678
   21PVA    H84 3540   5.938   7.012   1.609 -0.2813  1.9733  0.3100
   21PVA    C43 3541   5.835   7.147   1.450 -0.1161  0.5881 -0.5283
   21PVA    H85 3542   5.737   7.180   1.413 -1.2910 -2.2168 -0.1647
   21PVA    H86 3543   5.880   7.090   1.368 -1.0125 -0.2353 -0.4675
   21PVA    C44 3544   5.918   7.274   1.451  0.5022  0.0700 -0.9761
   21PVA    H87 3545   6.017   7.226   1.451  1.2156  1.2772  2.3580
   21PVA    O15 3546   5.889   7.348   1.572  0.3117  0.0705 -0.4858
   21PVA    H88 3547   5.923   7.300   1.650 -0.1600 -1.7595 -1.3712
   21PVA    C45 3548   5.900   7.377   1.330 -0.5162  0.2381  0.9564
   21PVA    H89 3549   5.876   7.320   1.239 -0.8584  0.6067  0.8127
   21PVA    H90 3550   5.813   7.441   1.347 -1.7195 -2.0253  4.2881
   21PVA    C46 3551   6.021   7.467   1.290  0.5182  0.1179  0.1434
   21PVA    H91 3552   6.091   7.384   1.301  0.2237 -0.0378  0.8872
   21PVA    H92 3553   6.053   7.529   1.374  3.4396 -0.8756 -0.1510
   21PVA    C47 3554   6.030   7.550   1.168  0.3355 -0.1181  0.1113
   21PVA    H93 3555   5.966   7.639   1.165  1.5422  0.7717 -2.5797
   21PVA    O16 3556   5.975   7.476   1.061 -0.0128 -0.6726  0.2184
   21PVA    H94 3557   5.990   7.381   1.074 -3.4289 -0.9406  4.9222
   21PVA    C48 3558   6.180   7.609   1.140 -0.0657 -0.4460 -0.4262
   21PVA    H95 3559   6.187   0.018   1.196 -1.4553 -1.7982  2.2160
   21PVA    H96 3560   6.252   7.541   1.187  0.1974 -3.6223 -4.7860
   21PVA    C49 3561   6.239   7.641   0.995  0.5515  0.8101 -0.4729
   21PVA    H97 3562   6.231   7.547   0.940  4.1970 -0.5136  0.9237
   21PVA    H98 3563   6.183   0.041   0.954 -2.0306  0.1444  1.4421
   21PVA    C50 3564   6.393   7.660   0.985  0.9530  0.2163 -0.3159
   21PVA    H99 3565   6.418   7.581   0.912  1.4521  1.0027 -1.0169
   21PVA    O17 3566   6.449   7.617   1.101 -0.0335 -0.1013 -0.6816
   21PVA   H100 3567   6.425   0.005   1.161  1.3072  1.3477 -1.8078
   21PVA    C51 3568   6.447   0.105   0.925  0.1976  0.2381  0.2157
   21PVA   H101 3569   6.460   0.099   0.816  0.1326  1.2192  0.1458
   21PVA   H102 3570   6.363   0.175   0.935 -2.2011 -2.3003 -1.0384
   22PVA     C1 3571   3.333   2.772   7.798 -0.2299 -0.9013  0.0474
   22PVA     H1 3572   3.344   2.665   7.772  1.9064 -0.6095 -0.4857
   22PVA     H2 3573   3.287   2.775   7.898 -3.1394  0.2339 -1.2456
   22PVA     C2 3574   3.475   2.835   7.807 -0.1676  0.0117 -0.2214
   22PVA     H3 3575   3.548   2.808   7.730 -2.5063  3.5430 -4.1012
   22PVA     O1 3576   3.459   2.975   7.791  0.4551  0.9438 -0.2246
   22PVA     H4 3577   3.462   3.011   7.881 -1.1520  0.0554  0.2265
   22PVA     C3 3578   3.542   2.813   7.942  0.8437 -0.2692  0.3675
   22PVA     H5 3579   3.503   2.892   8.008 -1.0157  0.5680 -1.6461
   22PVA     H6 3580   3.502   2.725   7.993  1.0306 -0.5924 -0.0344
   22PVA     C4 3581   3.699   2.821   7.972 -0.5028  0.2136  0.4389
   22PVA     H7 3582   3.744   2.728   7.934 -0.2998  0.9259 -1.0889
   22PVA     H8 3583   3.750   2.901   7.918 -0.7219  0.4242  0.5427
   22PVA     C5 3584   3.753   2.828   0.017  0.0025 -0.4097  0.3071
   22PVA     H9 3585   3.761   2.936   0.037 -1.2046 -0.6810  2.6283
   22PVA     O2 3586   3.663   2.781   0.127  0.7043 -0.5348  0.1847
   22PVA    H10 3587   3.639   2.692   0.098 -2.1707 -0.4184  1.8310
   22PVA     C6 3588   3.889   2.748   0.021 -0.0338 -0.2723  0.4276
   22PVA    H11 3589   3.878   2.642   0.044  2.2347 -0.6036  0.2731
   22PVA    H12 3590   3.940   2.754   8.021 -0.0010 -0.0522  0.4572
   22PVA     C7 3591   4.001   2.790   0.130 -0.4213  0.0079 -0.6269
   22PVA    H13 3592   4.049   2.693   0.149 -2.9928 -1.6761 -2.0314
   22PVA    H14 3593   3.955   2.814   0.226  0.1136  1.0232 -0.6163
   22PVA     C8 3594   4.089   2.903   0.078  0.6934  0.2960  0.6656
   22PVA    H15 3595   4.077   2.914   8.067 -0.3468 -0.7623  0.6475
   22PVA     O3 3596   4.035   3.025   0.140 -1.0178 -0.8891 -0.3045
   22PVA    H16 3597   4.058   3.015   0.234  1.0186  4.1462  0.0609
   22PVA     C9 3598   4.241   2.883   0.120 -0.5564  0.2305  0.2385
   22PVA    H17 3599   4.238   2.889   0.229 -3.0087  0.1738  0.2344
   22PVA    H18 3600   4.289   2.787   0.096  1.5370  1.4762 -0.8723
   22PVA    C10 3601   4.335   2.981   0.060 -0.6665 -0.7718 -0.3332
   22PVA    H19 3602   4.329   2.979   8.047  1.3393  0.9351 -0.5341
   22PVA    H20 3603   4.284   3.075   0.082  2.5498  0.6851  1.5333
   22PVA    C11 3604   4.476   2.996   0.129  0.2351 -0.1966 -0.4536
   22PVA    H21 3605   4.545   3.065   0.079 -1.6416 -0.1431 -3.1808
   22PVA     O4 3606   4.464   3.041   0.258  0.3561 -0.2098  0.0934
   22PVA    H22 3607   4.537   3.103   0.270 -0.0714  0.7748 -1.9231
   22PVA    C12 3608   4.564   2.864   0.125  0.2540 -0.2194 -0.5136
   22PVA    H23 3609   4.513   2.773   0.159  0.4558  0.8974  3.1817
   22PVA    H24 3610   4.598   2.836   0.025 -1.6432 -2.8724 -0.5225
   22PVA    C13 3611   4.697   2.880   0.206 -0.6440  0.1149 -0.0676
   22PVA    H25 3612   4.664   2.892   0.310 -1.0171  2.2214 -0.3883
   22PVA    H26 3613   4.764   2.965   0.192  1.2570 -0.5069  4.0504
   22PVA    C14 3614   4.773   2.742   0.190 -0.1281  0.6877  0.6615
   22PVA    H27 3615   4.819   2.732   0.092  0.0419  4.2014  0.2423
   22PVA     O5 3616   4.694   2.629   0.235 -0.1463 -0.4353 -0.3858
   22PVA    H28 3617   4.625   2.672   0.289 -0.3828  0.8436 -1.6534
   22PVA    C15 3618   4.904   2.764   0.268 -0.0926 -0.1575  0.2124
   22PVA    H29 3619   4.970   2.814   0.196 -0.8544 -0.8175 -0.9838
   22PVA    H30 3620   4.894   2.813   0.365 -0.7688  0.9647 -0.3978
   22PVA    C16 3621   4.968   2.632   0.317  0.0286  0.3819  0.1867
   22PVA    H31 3622   4.901   2.578   0.385 -4.2863  3.4365 -1.2645
   22PVA    H32 3623   5.052   2.665   0.380 -1.0886  4.2131 -0.0820
   22PVA    C17 3624   5.020   2.531   0.207 -0.7698  0.3330 -1.1001
   22PVA    H33 3625   4.929   2.482   0.169 -1.1355 -1.2052  1.5312
   22PVA     O6 3626   5.090   2.589   0.110 -0.4473 -0.8709 -0.2700
   22PVA    H34 3627   5.025   2.620   0.046 -4.2706 -1.4456  2.9374
   22PVA    C18 3628   5.111   2.422   0.269  0.0690 -0.1287  0.3600
   22PVA    H35 3629   5.191   2.465   0.331 -0.2746  0.8963  0.1087
   22PVA    H36 3630   5.048   2.366   0.340 -3.7020  1.9483 -1.0901
   22PVA    C19 3631   5.157   2.307   0.167 -0.1518 -0.0719  0.8661
   22PVA    H37 3632   5.207   2.346   0.077 -1.6562 -2.9776 -1.4043
   22PVA    H38 3633   5.074   2.248   0.127  0.5374 -1.1257  0.9514
   22PVA    C20 3634   5.248   2.197   0.225  0.5486  0.9636 -0.2840
   22PVA    H39 3635   5.332   2.243   0.279 -0.2477  1.1250  0.8547
   22PVA     O7 3636   5.176   2.128   0.319  0.5239 -0.1711  0.2396
   22PVA    H40 3637   5.116   2.078   0.261  0.0068  1.8489 -1.0932
   22PVA    C21 3638   5.283   2.084   0.112 -0.4958  0.3640 -0.0748
   22PVA    H41 3639   5.312   2.138   0.020  1.3378  1.5282  1.1228
   22PVA    H42 3640   5.207   2.007   0.095 -0.0396 -1.2651  4.1537
   22PVA    C22 3641   5.416   2.015   0.162 -0.0601 -0.8282 -0.0995
   22PVA    H43 3642   5.499   2.079   0.195  0.8692 -2.4761  0.8947
   22PVA    H44 3643   5.377   1.954   0.244 -1.7604  3.1706  2.3870
   22PVA    C23 3644   5.496   1.955   0.055 -1.0761 -0.1827 -0.2979
   22PVA    H45 3645   5.548   2.038   0.005  0.1363 -2.2512 -2.7041
   22PVA     O8 3646   5.416   1.880   8.066 -0.1327 -0.6373  0.6251
   22PVA    H46 3647   5.467   1.850   7.989  2.1270 -0.0248  1.8138
   22PVA    C24 3648   5.609   1.858   0.080  0.1215  0.0888 -0.4484
   22PVA    H47 3649   5.570   1.783   0.150 -2.5729  0.1782 -1.7091
   22PVA    H48 3650   5.649   1.811   8.087  0.2714 -0.4360 -0.1164
   22PVA    C25 3651   5.726   1.928   0.150 -1.3062  0.6310  0.0826
   22PVA    H49 3652   5.708   2.021   0.206  0.4957  1.6189 -0.8694
   22PVA    H50 3653   5.786   1.988   0.080 -0.1357 -0.0983  0.4293
   22PVA    C26 3654   5.812   1.822   0.231  0.5474 -1.3384  0.8775
   22PVA    H51 3655   5.745   1.810   0.317  0.4602 -4.2125  0.5104
   22PVA     O9 3656   5.821   1.711   0.154 -0.6394  1.2446  0.2035
   22PVA    H52 3657   5.790   1.739   0.066 -2.4401 -0.4840  0.2095
   22PVA    C27 3658   5.941   1.869   0.303 -0.0637 -0.6720  0.9390
   22PVA    H53 3659   5.980   1.941   0.230  2.3626 -3.5408 -0.7842
   22PVA    H54 3660   5.999   1.776   0.301  0.3431 -0.4179 -1.1495
   22PVA    C28 3661   5.915   1.946   0.437  0.7983  0.1383  0.4470
   22PVA    H55 3662   5.877   2.049   0.426 -0.8211 -0.7110 -3.5435
   22PVA    H56 3663   5.832   1.897   0.489  2.9519 -1.2202  2.8486
   22PVA    C29 3664   6.038   1.946   0.538 -0.2054  0.1319 -0.5637
   22PVA    H57 3665   6.066   1.852   0.586 -3.3899  1.2024  4.1931
   22PVA    O10 3666   6.149   2.010   0.482  0.6555  0.6707 -0.3545
   22PVA    H58 3667   6.228   1.955   0.494 -1.1848 -1.5379  3.5459
   22PVA    C30 3668   6.008   2.029   0.673  0.1998  1.2612  0.3346
   22PVA    H59 3669   6.108   2.072   0.688 -0.6553  2.7664  2.0577
   22PVA    H60 3670   5.944   2.112   0.641 -2.2647  0.2818  2.4306
   22PVA    C31 3671   5.960   1.955   0.799 -0.9299  0.2651 -0.9311
   22PVA    H61 3672   5.934   2.023   0.880  2.2506  1.7072 -0.9593
   22PVA    H62 3673   5.864   1.912   0.771 -0.0993 -0.6863 -2.4643
   22PVA    C32 3674   6.052   1.835   0.846  0.3390  0.3922 -0.4003
   22PVA    H63 3675   6.060   1.757   0.770  1.5317 -1.1395  1.2313
   22PVA    O11 3676   6.190   1.864   0.859 -0.1563 -0.4578 -0.6025
   22PVA    H64 3677   6.249   1.786   0.862 -0.2926 -0.5290  0.6887
   22PVA    C33 3678   5.985   1.771   0.972 -0.8474  0.5276 -1.0168
   22PVA    H65 3679   5.877   1.791   0.976 -0.7602  0.8284  0.3547
   22PVA    H66 3680   6.017   1.827   1.061  2.9716  1.1795 -2.6206
   22PVA    C34 3681   6.034   1.614   0.980 -0.3658  1.7742 -0.1400
   22PVA    H67 3682   6.032   1.578   0.877 -2.1824 -3.5031  1.4194
   22PVA    H68 3683   6.136   1.600   1.019 -1.2478 -3.3321  1.1198
   22PVA    C35 3684   5.950   1.530   1.081 -0.7155  0.9415  0.3486
   22PVA    H69 3685   5.957   1.425   1.052 -0.3284  0.5132  1.8688
   22PVA    O12 3686   6.009   1.523   1.214 -0.6771  0.4923  0.9199
   22PVA    H70 3687   6.106   1.515   1.215 -0.6189  0.6240 -0.8340
   22PVA    C36 3688   5.799   1.546   1.072  0.1844 -0.1983 -0.7893
   22PVA    H71 3689   5.796   1.545   0.963  0.8152 -1.4680 -0.8145
   22PVA    H72 3690   5.774   1.644   1.114 -5.0321 -1.6657  0.3164
   22PVA    C37 3691   5.691   1.456   1.149  0.2187 -0.2050  0.9440
   22PVA    H73 3692   5.728   1.400   1.236 -0.0625 -0.9986  0.5631
   22PVA    H74 3693   5.626   1.516   1.213  1.9477 -1.8626  4.5679
   22PVA    C38 3694   5.581   1.374   1.059 -0.5360 -0.8289 -0.4391
   22PVA    H75 3695   5.492   1.439   1.060 -0.4270 -0.6773  0.3971
   22PVA    O13 3696   5.641   1.342   0.939 -0.9993 -0.3879  0.0925
   22PVA    H76 3697   5.624   1.419   0.882  2.2430 -1.4107 -2.5999
   22PVA    C39 3698   5.530   1.249   1.146  0.3784 -0.4196  0.8723
   22PVA    H77 3699   5.629   1.223   1.185  0.0934 -1.7060  0.7823
   22PVA    H78 3700   5.458   1.289   1.218  1.3738 -2.7628  3.3179
   22PVA    C40 3701   5.479   1.128   1.065  1.1632 -0.0613 -0.2691
   22PVA    H79 3702   5.372   1.127   1.085  1.6847 -0.4007  2.9722
   22PVA    H80 3703   5.477   1.140   0.956 -2.0609  0.2203 -0.2646
   22PVA    C41 3704   5.518   0.968   1.094  0.8145 -0.3188 -0.2104
   22PVA    H81 3705   5.481   0.909   1.009  2.5258  0.8274 -1.8159
   22PVA    O14 3706   5.454   0.926   1.218 -0.2522  0.4556 -0.0028
   22PVA    H82 3707   5.474   0.832   1.234  1.4122  1.2116  3.2856
   22PVA    C42 3708   5.663   0.929   1.113  0.5338 -0.0604  0.1804
   22PVA    H83 3709   5.694   0.928   1.008 -2.4541 -1.8347 -0.8151
   22PVA    H84 3710   5.702   1.022   1.155  0.0237  0.9840 -1.5441
   22PVA    C43 3711   5.718   0.798   1.184 -0.3700  0.9544  0.9991
   22PVA    H85 3712   5.665   0.709   1.147  1.5802 -0.5067  1.5513
   22PVA    H86 3713   5.693   0.790   1.290  3.7135 -3.5100  1.9909
   22PVA    C44 3714   5.875   0.781   1.182  0.2781  0.8541 -1.2067
   22PVA    H87 3715   5.900   0.817   1.082  0.7866  3.6549 -0.1603
   22PVA    O15 3716   5.898   0.642   1.171  0.1099 -0.1756 -0.2425
   22PVA    H88 3717   5.977   0.631   1.115  4.9268  7.1282  3.6197
   22PVA    C45 3718   5.982   0.868   1.266 -0.8221 -0.0104  0.2094
   22PVA    H89 3719   5.952   0.973   1.263  0.4988  0.6976  4.4472
   22PVA    H90 3720   5.982   0.852   1.375 -0.2530  2.3852  0.6269
   22PVA    C46 3721   6.140   0.845   1.208  0.0629 -0.0663  1.2467
   22PVA    H91 3722   6.149   0.741   1.174  4.3409 -0.0488  1.7568
   22PVA    H92 3723   6.153   0.915   1.125  1.1459 -3.1166 -1.3495
   22PVA    C47 3724   6.270   0.857   1.301 -0.4841  0.8119 -0.0275
   22PVA    H93 3725   6.230   0.862   1.403  1.4582 -0.6267  0.8747
   22PVA    O16 3726   6.316   0.993   1.275  0.4413  0.5500  1.1073
   22PVA    H94 3727   6.256   1.055   1.320  2.1097  0.9601  2.8898
   22PVA    C48 3728   6.369   0.733   1.306  0.4086 -0.4574 -0.0890
   22PVA    H95 3729   6.318   0.636   1.305 -3.0304  0.7027  6.2653
   22PVA    H96 3730   6.402   0.706   1.407  0.1240  0.2752  0.2101
   22PVA    C49 3731   6.495   0.719   1.211 -1.2167 -0.0757 -1.2098
   22PVA    H97 3732   6.471   0.733   1.105 -0.3890  1.9802 -1.1711
   22PVA    H98 3733   6.555   0.805   1.242 -2.2967 -0.3846  2.1063
   22PVA    C50 3734   6.587   0.592   1.217  0.8047 -0.2990 -0.4614
   22PVA    H99 3735   6.522   0.514   1.259  1.7554 -1.9496 -1.9405
   22PVA    O17 3736   6.679   0.620   1.311 -0.1203  0.5969 -0.3989
   22PVA   H100 3737   6.651   0.697   1.363 -0.1422  0.5064 -0.2740
   22PVA    C51 3738   6.660   0.529   1.089  0.6908 -0.0383  0.0831
   22PVA   H101 3739   6.763   0.564   1.075  0.7400 -0.4516 -0.6183
   22PVA   H102 3740   6.585   0.567   1.019 -3.0916 -3.6767  1.7333
   23PVA     C1 3741   2.852   2.755   7.634  0.0567 -0.8553 -0.2802
   23PVA     H1 3742   2.884   2.652   7.615 -3.1188 -2.2143  1.0335
   23PVA     H2 3743   2.811   2.818   7.554  2.6282  2.4969  0.8066
   23PVA     C2 3744   2.765   2.767   7.762  0.5616 -1.1333 -1.3799
   23PVA     H3 3745   2.718   2.866   7.751 -1.3682 -1.7214  0.7678
   23PVA     O1 3746   2.851   2.772   7.881  0.8013 -0.0409  0.4940
   23PVA     H4 3747   2.848   2.676   7.898 -2.1132 -0.2821 -0.6674
   23PVA     C3 3748   2.641   2.664   7.770 -0.3701 -0.3201 -0.4949
   23PVA     H5 3749   2.687   2.565   7.762 -1.0240 -0.5764 -1.1601
   23PVA     H6 3750   2.576   2.674   7.682 -0.5296  1.0279 -0.2373
   23PVA     C4 3751   2.554   2.680   7.899  0.3478  0.4131 -1.1631
   23PVA     H7 3752   2.587   2.609   7.976  1.6011  2.0445 -0.1372
   23PVA     H8 3753   2.593   2.762   7.960  2.2234 -2.0518  1.1934
   23PVA     C5 3754   2.396   2.653   7.909  0.0567 -0.5400 -0.1212
   23PVA     H9 3755   2.374   2.555   7.865  0.0793 -0.1420 -1.0562
   23PVA     O2 3756   2.346   2.757   7.829  0.5245 -0.7049  0.7257
   23PVA    H10 3757   2.358   2.841   7.875 -1.2505 -1.6345  3.1346
   23PVA     C6 3758   2.322   2.645   8.050  0.3150 -0.4937 -0.2593
   23PVA    H11 3759   2.264   2.553   8.034  1.5334 -0.9372 -2.7844
   23PVA    H12 3760   2.384   2.619   0.039 -2.2190 -1.0214  1.4933
   23PVA     C7 3761   2.215   2.754   0.002  0.7018  0.0401 -0.2688
   23PVA    H13 3762   2.174   2.810   8.014 -0.6517 -1.0334 -0.3577
   23PVA    H14 3763   2.273   2.836   0.046  0.5743  0.4412 -0.8388
   23PVA     C8 3764   2.116   2.711   0.105  0.6014 -0.4452  0.4554
   23PVA    H15 3765   2.141   2.607   0.131 -0.7257 -0.5966  1.1879
   23PVA     O3 3766   1.982   2.717   0.037  0.1592 -0.3467 -0.4278
   23PVA    H16 3767   1.994   2.664   8.053 -2.1389 -3.2318  0.9113
   23PVA     C9 3768   2.097   2.788   0.248  1.1889  0.9318 -1.1922
   23PVA    H17 3769   2.108   2.895   0.229  0.1058  1.0795 -1.0991
   23PVA    H18 3770   2.180   2.770   0.317  0.6709 -0.6988 -0.9521
   23PVA    C10 3771   1.958   2.772   0.330  0.2752 -0.9424 -0.4840
   23PVA    H19 3772   1.871   2.796   0.268 -0.4821  4.7438  2.1903
   23PVA    H20 3773   1.948   2.668   0.363  1.5731  0.6200  6.1566
   23PVA    C11 3774   1.931   2.857   0.463 -0.3089 -0.1149 -1.3350
   23PVA    H21 3775   2.015   2.850   0.534  1.1004  0.4852 -2.8745
   23PVA     O4 3776   1.909   2.991   0.426  0.1304 -0.2845  0.4271
   23PVA    H22 3777   1.822   2.994   0.382  1.7167 -1.4148 -3.1474
   23PVA    C12 3778   1.806   2.798   0.554 -0.8130 -0.0846  0.9446
   23PVA    H23 3779   1.726   2.761   0.488 -0.8255 -1.3297  1.6398
   23PVA    H24 3780   1.838   2.706   0.604 -3.5681 -3.0833 -2.3037
   23PVA    C13 3781   1.720   2.890   0.661 -0.7650 -0.2719 -0.1890
   23PVA    H25 3782   1.701   2.984   0.608  1.5727  1.1303  1.2859
   23PVA    H26 3783   1.774   2.922   0.751 -0.8118  1.3014 -0.6967
   23PVA    C14 3784   1.571   2.849   0.707 -0.0037  0.6282  1.0691
   23PVA    H27 3785   1.578   2.746   0.744  0.7716 -0.2132 -1.2968
   23PVA     O5 3786   1.499   2.848   0.588  0.1583  0.8983  0.6103
   23PVA    H28 3787   1.480   2.936   0.552  0.8018 -0.7738 -4.6843
   23PVA    C15 3788   1.505   2.934   0.812  0.1588 -0.0511 -0.5201
   23PVA    H29 3789   1.497   3.039   0.782 -0.5111  1.2832  3.6682
   23PVA    H30 3790   1.579   2.939   0.893  0.6065 -0.1192 -0.9233
   23PVA    C16 3791   1.359   2.883   0.843 -1.5192 -0.3446 -0.4926
   23PVA    H31 3792   1.321   2.837   0.751 -0.3401  4.2368 -3.6234
   23PVA    H32 3793   1.402   2.795   0.892 -1.3605 -0.2778 -0.5107
   23PVA    C17 3794   1.262   2.959   0.949 -0.2431  0.9762 -0.1339
   23PVA    H33 3795   1.255   2.884   1.029  1.9786 -0.6170 -1.3431
   23PVA     O6 3796   1.313   3.075   0.991 -0.1804 -0.5421 -0.1414
   23PVA    H34 3797   1.404   3.062   1.024  0.2887 -0.5397 -1.3846
   23PVA    C18 3798   1.116   2.979   0.916 -1.2790 -0.3881  0.0808
   23PVA    H35 3799   1.099   3.062   0.846 -0.5628  0.7946  1.2547
   23PVA    H36 3800   1.083   2.883   0.874 -1.2882 -0.2951 -0.1253
   23PVA    C19 3801   1.009   2.994   1.030  0.2855 -0.0041 -0.5711
   23PVA    H37 3802   1.043   3.070   1.103  1.6467 -1.1334  0.0258
   23PVA    H38 3803   0.996   2.900   1.085  0.3059  2.6939  4.6917
   23PVA    C20 3804   0.860   3.063   0.988  0.2988  0.5830 -0.1199
   23PVA    H39 3805   0.888   3.156   0.937  2.2074 -0.7521 -1.6595
   23PVA     O7 3806   0.830   2.982   0.874  0.8005 -1.2752 -0.6798
   23PVA    H40 3807   0.904   2.981   0.811  2.4034 -3.1778  1.1219
   23PVA    C21 3808   0.746   3.104   1.092  0.6301  0.7257  0.5004
   23PVA    H41 3809   0.803   3.129   1.182 -2.2540  1.3114  2.2980
   23PVA    H42 3810   0.689   3.010   1.098  3.4395 -1.0478  1.7786
   23PVA    C22 3811   0.642   3.222   1.057  0.3767  0.4959 -0.5254
   23PVA    H43 3812   0.700   3.315   1.059 -2.9871  3.0032 -3.9731
   23PVA    H44 3813   0.590   3.218   0.961  0.2963  1.2853 -0.5221
   23PVA    C23 3814   0.524   3.243   1.150 -0.0011 -0.3982 -0.0189
   23PVA    H45 3815   0.560   3.220   1.251 -1.6061 -3.5048 -0.0306
   23PVA     O8 3816   0.407   3.163   1.113 -0.0739  0.1112  0.4492
   23PVA    H46 3817   0.386   3.192   1.022 -1.4855  0.2780  0.8137
   23PVA    C24 3818   0.457   3.394   1.137  0.6361  0.6960  0.4449
   23PVA    H47 3819   0.501   3.479   1.191  0.4276  4.3034 -4.3474
   23PVA    H48 3820   0.474   3.433   1.036 -1.8172  1.3739  0.2195
   23PVA    C25 3821   0.304   3.412   1.171  1.2600 -0.1143 -0.3535
   23PVA    H49 3822   0.287   3.374   1.272 -3.0435 -0.1005 -0.8887
   23PVA    H50 3823   0.239   3.344   1.115  0.7352 -0.7781  1.0245
   23PVA    C26 3824   0.224   3.541   1.159 -0.3493 -0.3562 -1.7612
   23PVA    H51 3825   0.256   3.585   1.255  0.1105 -0.5475 -1.8285
   23PVA     O9 3826   0.304   3.613   1.061  0.4401  0.3770 -0.3549
   23PVA    H52 3827   0.375   3.667   1.100  2.5314 -0.8408 -2.2103
   23PVA    C27 3828   0.061   3.553   1.145 -0.2325 -0.3583  0.1876
   23PVA    H53 3829   0.004   3.473   1.194 -2.3148  2.3527  2.5546
   23PVA    H54 3830   0.040   3.548   1.037 -3.0652 -2.3969  0.7235
   23PVA    C28 3831   7.758   3.691   1.174  1.0832  1.1253 -0.1346
   23PVA    H55 3832   7.738   3.693   1.282  1.2326 -1.5880  0.0041
   23PVA    H56 3833   0.067   3.772   1.175  0.9243  1.2874  1.4687
   23PVA    C29 3834   7.632   3.723   1.099 -0.0670  0.3488 -0.5744
   23PVA    H57 3835   7.667   3.779   1.012 -2.0585 -0.5899 -2.0468
   23PVA    O10 3836   7.582   3.598   1.068  0.2076 -0.5714  0.1324
   23PVA    H58 3837   7.526   3.602   0.989 -0.2527 -0.5527  0.4528
   23PVA    C30 3838   7.518   3.805   1.162 -0.2104 -0.2234 -0.3977
   23PVA    H59 3839   7.453   3.735   1.217 -1.7161  0.1001 -1.6886
   23PVA    H60 3840   7.547   3.867   1.248 -1.6657 -0.0191 -0.0276
   23PVA    C31 3841   7.426   3.876   1.059  0.1785  0.1999 -0.6234
   23PVA    H61 3842   7.421   3.844   0.954 -1.7639  1.7024 -1.0561
   23PVA    H62 3843   7.495   3.959   1.043  0.6057 -0.2537 -1.1625
   23PVA    C32 3844   7.288   3.927   1.095  0.8312  0.2017 -0.2077
   23PVA    H63 3845   7.223   3.848   1.134 -1.7867  1.9578 -0.7535
   23PVA    O11 3846   7.321   4.007   1.204 -0.1701 -0.3484  0.9022
   23PVA    H64 3847   7.243   4.025   1.258 -0.3639 -2.3801  1.3789
   23PVA    C33 3848   7.194   4.005   0.989  1.1748  0.1307 -1.2511
   23PVA    H65 3849   7.219   4.112   0.985 -2.1070  1.1148  0.6347
   23PVA    H66 3850   7.225   3.977   0.888 -0.6487 -0.2222 -1.7549
   23PVA    C34 3851   7.034   3.992   1.006 -0.3966  1.0336  0.1319
   23PVA    H67 3852   7.010   3.889   0.976 -1.3566  0.1944  3.4326
   23PVA    H68 3853   7.010   3.986   1.113 -3.4352 -0.1659 -0.4992
   23PVA    C35 3854   6.928   4.080   0.935 -0.6674  0.2447 -1.4721
   23PVA    H69 3855   6.914   4.184   0.966 -2.9784 -0.2496 -0.6690
   23PVA    O12 3856   6.967   4.088   0.796 -1.0102  0.5804  0.0276
   23PVA    H70 3857   6.971   3.994   0.773  0.6731  0.5958  0.1799
   23PVA    C36 3858   6.770   4.032   0.932  0.5422 -0.2274 -0.4022
   23PVA    H71 3859   6.743   3.987   1.029  0.3485  0.7846  0.0188
   23PVA    H72 3860   6.760   3.950   0.859 -2.3712  1.3064 -1.8701
   23PVA    C37 3861   6.663   4.140   0.916 -1.3651  0.1785  0.1681
   23PVA    H73 3862   6.709   4.234   0.882  0.0720 -0.2949  0.7304
   23PVA    H74 3863   6.645   4.182   1.016 -0.4569 -2.1978  1.4114
   23PVA    C38 3864   6.536   4.089   0.851  0.8856 -0.5678 -0.5603
   23PVA    H75 3865   6.520   4.115   0.745 -1.1003 -1.8345 -0.6445
   23PVA    O13 3866   6.529   3.944   0.858 -0.3475 -0.4439 -0.8398
   23PVA    H76 3867   6.459   3.904   0.804 -1.9455 -2.0542  2.1575
   23PVA    C39 3868   6.409   4.134   0.932 -0.7544 -0.3970  1.4288
   23PVA    H77 3869   6.441   4.226   0.982  1.7453  1.5787 -3.1483
   23PVA    H78 3870   6.399   4.049   1.001  3.6700 -4.7885 -2.5393
   23PVA    C40 3871   6.264   4.149   0.862  0.2900  0.8687 -0.1880
   23PVA    H79 3872   6.251   4.223   0.781  1.6736 -0.1976 -1.4518
   23PVA    H80 3873   6.231   4.052   0.822  2.1479 -1.0771  2.6659
   23PVA    C41 3874   6.141   4.164   0.959  0.9718  0.8988  1.4073
   23PVA    H81 3875   6.111   4.081   1.024 -2.2857  0.1230 -0.8524
   23PVA    O14 3876   6.163   4.273   1.034  0.4594  0.4276  0.6643
   23PVA    H82 3877   6.202   4.339   0.974  0.9096 -0.2586  0.1889
   23PVA    C42 3878   6.002   4.188   0.879 -0.3378 -0.2531 -1.0750
   23PVA    H83 3879   6.011   4.285   0.827  0.2035  1.1377  1.4576
   23PVA    H84 3880   5.989   4.116   0.797  0.6667 -0.4626 -1.0536
   23PVA    C43 3881   5.871   4.200   0.965 -1.2642  0.4688 -0.1132
   23PVA    H85 3882   5.885   4.264   1.053  1.7903 -0.8116  0.4635
   23PVA    H86 3883   5.877   4.103   1.015  2.8511  0.8856  0.5384
   23PVA    C44 3884   5.727   4.240   0.896  0.6761  0.0754 -1.0744
   23PVA    H87 3885   5.736   4.305   0.808 -2.8096  0.9289 -0.9524
   23PVA    O15 3886   5.680   4.126   0.828 -0.6738  0.1523 -0.1797
   23PVA    H88 3887   5.760   4.106   0.776  0.3868  0.3442  1.3301
   23PVA    C45 3888   5.628   4.320   0.984  1.5780 -0.2179 -0.1771
   23PVA    H89 3889   5.664   4.352   1.083  5.0016  0.9043 -1.6195
   23PVA    H90 3890   5.545   4.251   1.000  0.2756  1.3962  0.2069
   23PVA    C46 3891   5.546   4.429   0.897  0.1671  0.8652 -0.3915
   23PVA    H91 3892   5.613   4.511   0.870 -0.6088  1.1317 -1.5981
   23PVA    H92 3893   5.519   4.387   0.799 -1.4969 -1.7199  1.0431
   23PVA    C47 3894   5.418   4.488   0.964  0.5480  0.2389  0.3927
   23PVA    H93 3895   5.336   4.477   0.892  2.3585  0.6210 -1.8342
   23PVA    O16 3896   5.375   4.432   1.077  0.0363  0.3505 -0.3581
   23PVA    H94 3897   5.414   4.484   1.149 -2.3814  2.0022 -0.1442
   23PVA    C48 3898   5.420   4.642   0.980  0.3286 -0.1361  1.2174
   23PVA    H95 3899   5.483   4.660   1.068 -0.6859  3.9841  1.3144
   23PVA    H96 3900   5.470   4.682   0.891 -1.4668  0.0189  0.2209
   23PVA    C49 3901   5.280   4.726   1.005  0.0090  0.9134 -0.6020
   23PVA    H97 3902   5.231   4.678   1.091  0.6699 -2.5133 -1.9883
   23PVA    H98 3903   5.206   4.719   0.924 -0.5194  2.6147 -0.3073
   23PVA    C50 3904   5.276   4.882   1.035 -0.1118  0.7829 -0.0012
   23PVA    H99 3905   5.264   4.894   1.143 -0.6990 -1.9110  0.3087
   23PVA    O17 3906   5.396   4.928   0.988 -1.0974  0.1153 -0.0257
   23PVA   H100 3907   5.459   4.908   1.060  2.9292 -1.2278 -3.5575
   23PVA    C51 3908   5.179   4.977   0.960  0.8713  0.2349 -0.4040
   23PVA   H101 3909   5.235   5.042   0.893 -1.0164  1.0080 -1.3013
   23PVA   H102 3910   5.125   4.914   0.888  1.2142  2.2565 -2.5328
   24PVA     C1 3911   7.648   7.680   1.396  0.5168 -0.5991 -0.3545
   24PVA     H1 3912   7.636   7.571   1.404  0.8472 -0.9374 -3.2883
   24PVA     H2 3913   7.615   0.050   1.485 -3.0581 -1.0587 -1.2485
   24PVA     C2 3914   0.033   0.003   1.389  0.4404  0.2684 -0.6064
   24PVA     H3 3915   0.059   7.663   1.285  4.3411  2.1008 -0.2254
   24PVA     O1 3916   0.053   0.138   1.410  0.0010  0.1608 -0.6528
   24PVA     H4 3917   0.041   0.154   1.505 -4.4426  2.7056 -1.3525
   24PVA     C3 3918   0.119   7.596   1.489  0.7097 -0.2883  0.0196
   24PVA     H5 3919   0.102   7.488   1.493  0.2196 -0.2017  0.4388
   24PVA     H6 3920   0.097   7.636   1.589 -0.2653 -0.8247  0.0298
   24PVA     C4 3921   0.270   7.622   1.456 -0.5543  1.0083 -0.7358
   24PVA     H7 3922   0.287   0.041   1.487 -1.4862  0.4759  1.8359
   24PVA     H8 3923   0.303   7.627   1.352 -1.6044  1.0543 -1.0814
   24PVA     C5 3924   0.391   7.544   1.518 -0.2426  0.4276 -1.7233
   24PVA     H9 3925   0.402   7.557   1.627  1.0154  2.6943 -2.0623
   24PVA     O2 3926   0.395   7.408   1.468  1.4065 -1.4374 -1.5367
   24PVA    H10 3927   0.380   7.391   1.373  0.6927 -3.2866 -1.1362
   24PVA     C6 3928   0.529   7.604   1.460 -0.2002  0.3059 -0.6238
   24PVA    H11 3929   0.539   7.600   1.350  1.0799  1.7478 -0.5968
   24PVA    H12 3930   0.516   0.024   1.489 -2.7090  0.2159 -1.2364
   24PVA     C7 3931   0.675   7.546   1.506  0.0283 -0.6584 -0.4337
   24PVA    H13 3932   0.704   7.455   1.454  2.1666  0.1106 -0.6746
   24PVA    H14 3933   0.655   7.508   1.607  3.9021 -0.5642  0.4976
   24PVA     C8 3934   0.797   7.645   1.521  0.1634  0.0277  1.1519
   24PVA    H15 3935   0.752   0.043   1.577 -1.9458 -1.0355  1.1400
   24PVA     O3 3936   0.835   7.684   1.389 -0.2258 -0.7981 -1.0253
   24PVA    H16 3937   0.925   0.035   1.400  0.5756 -1.8805 -3.3901
   24PVA     C9 3938   0.913   7.589   1.604 -0.1581 -0.6483 -0.1925
   24PVA    H17 3939   0.966   7.510   1.548 -2.2127 -2.4018  0.2427
   24PVA    H18 3940   0.871   7.548   1.696  0.2853 -3.3407 -1.1077
   24PVA    C10 3941   1.019   0.022   1.640 -0.0916  0.4680  0.6310
   24PVA    H19 3942   1.062   0.089   1.565  0.1202 -1.2590 -0.8715
   24PVA    H20 3943   0.977   0.094   1.711 -0.2775 -1.7513  2.9043
   24PVA    C11 3944   1.155   7.663   1.699 -0.5686 -0.1298 -0.3068
   24PVA    H21 3945   1.146   7.626   1.801  2.3520 -2.0138 -0.6046
   24PVA     O4 3946   1.193   7.562   1.620 -0.0695 -0.1945 -0.9775
   24PVA    H22 3947   1.147   7.480   1.646 -1.3066  0.3924 -1.2601
   24PVA    C12 3948   1.256   0.101   1.738  0.4484 -0.3506  0.3300
   24PVA    H23 3949   1.305   0.128   1.643  0.3887 -3.5485 -0.7620
   24PVA    H24 3950   1.205   0.174   1.801  2.3285 -1.4098  3.3401
   24PVA    C13 3951   1.385   0.077   1.815 -0.1941 -0.4089  0.3075
   24PVA    H25 3952   1.439   0.003   1.754 -2.2560 -1.0945 -0.7819
   24PVA    H26 3953   1.369   0.033   1.914  0.6249  0.4314  0.8330
   24PVA    C14 3954   1.480   0.202   1.832 -0.4238  0.9467  0.8322
   24PVA    H27 3955   1.502   0.231   1.729  3.1472  1.2049  1.5090
   24PVA     O5 3956   1.393   0.296   1.890 -0.6263  0.1865 -0.3648
   24PVA    H28 3957   1.344   0.332   1.814  3.0732 -1.2839 -3.8071
   24PVA    C15 3958   1.625   0.196   1.900 -0.4508 -0.3964 -0.1960
   24PVA    H29 3959   1.697   0.197   1.818  0.4234 -2.7320  0.4805
   24PVA    H30 3960   1.639   0.098   1.947 -0.6497  1.1215  3.3408
   24PVA    C16 3961   1.690   0.291   2.001 -0.1455 -0.3224  0.0411
   24PVA    H31 3962   1.653   0.394   1.997  0.5170 -0.0696  0.3184
   24PVA    H32 3963   1.653   0.250   2.096 -2.1023 -0.5937 -0.7929
   24PVA    C17 3964   1.843   0.315   1.991  0.4063  0.3612 -0.0771
   24PVA    H33 3965   1.877   0.218   1.954 -4.0170  0.1708 -4.5509
   24PVA     O6 3966   1.867   0.415   1.910  0.1755 -0.0430  0.3790
   24PVA    H34 3967   1.851   0.498   1.957 -1.0434  0.9572 -1.6700
   24PVA    C18 3968   1.931   0.341   2.125 -0.5160  0.4868  0.1168
   24PVA    H35 3969   1.966   0.444   2.116 -1.2169  0.5551 -3.2611
   24PVA    H36 3970   1.856   0.365   2.201 -2.5802 -0.7992 -1.4030
   24PVA    C19 3971   2.037   0.232   2.187 -0.8063 -0.2656 -0.0289
   24PVA    H37 3972   2.051   0.169   2.098  1.3148 -1.9438  1.3788
   24PVA    H38 3973   1.985   0.157   2.247  1.5589 -0.7620  1.5522
   24PVA    C20 3974   2.171   0.276   2.270  0.0397 -0.2385  0.7481
   24PVA    H39 3975   2.146   0.280   2.377 -3.0177 -1.2228  0.1649
   24PVA     O7 3976   2.200   0.407   2.236 -0.3180 -0.6495  0.0860
   24PVA    H40 3977   2.266   0.416   2.165 -1.0632 -0.8167 -0.6418
   24PVA    C21 3978   2.315   0.189   2.267  0.0629 -0.8000 -1.0035
   24PVA    H41 3979   2.374   0.196   2.359 -0.0798 -0.8412 -0.9076
   24PVA    H42 3980   2.304   0.080   2.272 -2.7247 -0.5402  1.0607
   24PVA    C22 3981   2.404   0.217   2.153 -0.3540 -0.6652  0.3723
   24PVA    H43 3982   2.441   0.320   2.159  1.8242 -1.1078 -2.9448
   24PVA    H44 3983   2.333   0.214   2.069  2.9585  3.4576 -3.0197
   24PVA    C23 3984   2.549   0.151   2.121 -0.6986 -0.1328  0.7198
   24PVA    H45 3985   2.633   0.219   2.140  0.7422 -1.2619 -1.1960
   24PVA     O8 3986   2.560   0.030   2.200  0.1500  0.0617 -0.6160
   24PVA    H46 3987   2.586   7.646   2.136  0.8479 -0.3322  0.0817
   24PVA    C24 3988   2.584   0.117   1.969  0.0787 -0.5079 -0.3372
   24PVA    H47 3989   2.486   0.113   1.920 -0.2964 -0.5106  0.4049
   24PVA    H48 3990   2.646   0.199   1.933  1.6774 -2.5581 -2.6108
   24PVA    C25 3991   2.658   7.679   1.932  0.2736 -1.0609 -0.1008
   24PVA    H49 3992   2.591   7.602   1.971  1.9832 -1.7949  1.5265
   24PVA    H50 3993   2.753   7.664   1.985  1.1437  2.4639 -0.3923
   24PVA    C26 3994   2.684   7.652   1.774 -0.3304  0.2348  0.1316
   24PVA    H51 3995   2.662   0.057   1.716 -2.6424  0.3179  1.0662
   24PVA     O9 3996   2.570   7.569   1.732 -0.5762  0.0218 -0.1106
   24PVA    H52 3997   2.579   7.568   1.636 -0.1027  0.2565 -0.0746
   24PVA    C27 3998   2.811   7.570   1.737  0.7346  0.5705 -1.1570
   24PVA    H53 3999   2.898   7.635   1.751 -1.0424  3.3247 -2.1948
   24PVA    H54 4000   2.834   7.485   1.802  2.2619  1.1456 -0.8887
   24PVA    C28 4001   2.821   7.523   1.586 -1.1778  0.3870  1.5035
   24PVA    H55 4002   2.903   7.585   1.548 -1.8135  0.1212 -0.4050
   24PVA    H56 4003   2.725   7.539   1.535 -0.3937 -1.8504 -0.8582
   24PVA    C29 4004   2.874   7.371   1.565  0.0030  0.4788 -0.0738
   24PVA    H57 4005   2.938   7.350   1.652 -1.0876  0.9800  0.8795
   24PVA    O10 4006   2.747   7.295   1.567 -0.1341  0.2767 -0.6645
   24PVA    H58 4007   2.677   7.346   1.522  1.1912  0.3361 -2.7808
   24PVA    C30 4008   2.964   7.316   1.450  0.2876 -0.6295  0.1483
   24PVA    H59 4009   2.910   7.311   1.355  1.9596 -1.3509 -0.8143
   24PVA    H60 4010   3.049   7.384   1.438  0.0161 -0.1557  0.8591
   24PVA    C31 4011   3.023   7.171   1.470 -0.8326  0.4448 -0.0725
   24PVA    H61 4012   2.960   7.102   1.526 -0.0244  1.1278  1.7492
   24PVA    H62 4013   3.103   7.185   1.544  1.4879 -2.6042 -1.7512
   24PVA    C32 4014   3.087   7.091   1.358 -0.5026  0.5129 -0.9068
   24PVA    H63 4015   3.015   7.014   1.325 -5.5525  4.7279 -1.0521
   24PVA    O11 4016   3.139   7.159   1.247  0.0599 -0.1007  0.2580
   24PVA    H64 4017   3.082   7.126   1.175 -3.3057  3.8077  0.7995
   24PVA    C33 4018   3.201   6.993   1.408 -0.2151 -0.5438 -1.5678
   24PVA    H65 4019   3.197   6.978   1.516  5.6575  1.8361 -0.6392
   24PVA    H66 4020   3.293   7.052   1.400 -3.1915  4.9829 -0.3132
   24PVA    C34 4021   3.252   6.880   1.314 -0.1920 -0.3388 -0.4608
   24PVA    H67 4022   3.171   6.807   1.325  1.4205 -2.0518  0.7694
   24PVA    H68 4023   3.261   6.918   1.212  0.3418  2.6350  0.5903
   24PVA    C35 4024   3.376   6.785   1.342  0.7345 -0.3875  0.6174
   24PVA    H69 4025   3.455   6.853   1.377  1.5341 -0.0838 -1.5930
   24PVA    O12 4026   3.336   6.682   1.446 -0.4730 -0.9507  0.3171
   24PVA    H70 4027   3.245   6.698   1.475 -0.2500 -4.2075  3.5656
   24PVA    C36 4028   3.423   6.706   1.217  0.0686  1.3662  0.2257
   24PVA    H71 4029   3.340   6.644   1.182  3.2849 -1.8222 -2.7399
   24PVA    H72 4030   3.454   6.770   1.132  1.8905 -1.7860 -1.6987
   24PVA    C37 4031   3.544   6.607   1.252  0.5337  0.1645 -0.2144
   24PVA    H73 4032   3.546   6.578   1.358 -0.2179 -2.2918 -0.8054
   24PVA    H74 4033   3.634   6.668   1.238  1.8479 -0.9901  2.5532
   24PVA    C38 4034   3.520   6.465   1.191 -0.1957  0.2623  0.2545
   24PVA    H75 4035   3.464   6.416   1.271  0.1526  0.3096  0.5291
   24PVA    O13 4036   3.454   6.459   1.069  0.2109 -0.4161  0.4419
   24PVA    H76 4037   3.480   6.537   1.017  1.3078 -1.3610 -0.4962
   24PVA    C39 4038   3.663   6.392   1.174  0.0925  0.1895 -0.4971
   24PVA    H77 4039   3.698   6.371   1.276  0.3179  3.5387  0.2317
   24PVA    H78 4040   3.737   6.457   1.127 -0.3085  0.3764 -0.8852
   24PVA    C40 4041   3.672   6.253   1.098 -0.3837  1.1540 -0.7554
   24PVA    H79 4042   3.616   6.266   1.005  3.7317  0.0481 -3.6911
   24PVA    H80 4043   3.625   6.181   1.166  0.2922  2.7082  1.4512
   24PVA    C41 4044   3.813   6.204   1.062 -0.3105 -1.0925 -0.2312
   24PVA    H81 4045   3.880   6.220   1.148 -1.6876  1.3477  0.4885
   24PVA    O14 4046   3.861   6.284   0.955 -1.0833 -0.0271  1.0483
   24PVA    H82 4047   3.926   6.224   0.916 -1.8730 -0.7360  0.8048
   24PVA    C42 4048   3.829   6.054   1.031 -0.2363  0.8520 -0.4081
   24PVA    H83 4049   3.787   5.998   1.115  1.7842 -2.3231 -1.3225
   24PVA    H84 4050   3.758   6.027   0.952 -0.4308  1.7668 -0.5565
   24PVA    C43 4051   3.970   6.001   1.003 -0.0588  0.9128  0.1334
   24PVA    H85 4052   3.976   6.001   0.894 -1.8566 -1.0116 -0.0421
   24PVA    H86 4053   4.040   6.080   1.031 -0.0661  1.8548 -2.2868
   24PVA    C44 4054   4.003   5.855   1.053  0.2311  0.7146 -0.5303
   24PVA    H87 4055   4.014   5.868   1.162 -0.7652  2.1372 -0.5755
   24PVA    O15 4056   3.891   5.768   1.018  0.3487 -0.3550 -0.3054
   24PVA    H88 4057   3.805   5.807   1.040  0.6082  0.0651 -0.0143
   24PVA    C45 4058   4.137   5.814   0.980 -0.7828 -1.4370 -1.0633
   24PVA    H89 4059   4.218   5.885   0.999  0.3449 -1.9817 -3.4699
   24PVA    H90 4060   4.117   5.816   0.872  2.3162  0.1286 -1.7147
   24PVA    C46 4061   4.189   5.666   1.013  0.5450 -0.1789  0.5739
   24PVA    H91 4062   4.199   5.657   1.122  0.5456  3.4134  0.9887
   24PVA    H92 4063   4.113   5.600   0.969  0.5890  0.4047 -0.4007
   24PVA    C47 4064   4.322   5.632   0.937  0.2824  0.3971  1.1137
   24PVA    H93 4065   4.385   5.719   0.916  2.4384 -1.4876 -0.8035
   24PVA    O16 4066   4.291   5.576   0.813 -0.0224 -1.3984  0.1968
   24PVA    H94 4067   4.195   5.585   0.829  0.6661  0.2182  5.2500
   24PVA    C48 4068   4.408   5.520   1.011  0.6331  0.7472  0.2691
   24PVA    H95 4069   4.415   5.547   1.117 -0.5840 -0.7711  0.7657
   24PVA    H96 4070   4.352   5.426   0.999  0.8600  0.1827  2.9961
   24PVA    C49 4071   4.550   5.493   0.949 -1.3438 -0.8426  0.5503
   24PVA    H97 4072   4.534   5.480   0.841  1.3754 -3.3561  0.3235
   24PVA    H98 4073   4.616   5.580   0.966  4.3517 -4.6659  0.8058
   24PVA    C50 4074   4.630   5.368   0.997  0.2929  0.1332  0.2319
   24PVA    H99 4075   4.572   5.290   0.947 -0.9233  1.6872 -0.8854
   24PVA    O17 4076   4.630   5.358   1.134  0.1575 -0.8371  0.6018
   24PVA   H100 4077   4.717   5.329   1.166 -0.8385 -2.7270  1.7712
   24PVA    C51 4078   4.775   5.335   0.929 -0.3446 -1.1111  0.0271
   24PVA   H101 4079   4.836   5.426   0.915 -1.3964 -0.6251 -1.6175
   24PVA   H102 4080   4.763   5.322   0.821  1.7912  2.4046 -0.8241
   25PVA     C1 4081   7.551   0.260   0.971 -0.0100 -0.8546  0.0803
   25PVA     H1 4082   7.584   0.356   1.013  3.3361 -0.6240 -2.5742
   25PVA     H2 4083   7.448   0.257   0.933 -0.5325  0.7385  1.2928
   25PVA     C2 4084   7.637   0.185   0.863 -1.1156 -0.1143  0.3907
   25PVA     H3 4085   7.560   0.140   0.799 -1.6474  0.4253  0.6562
   25PVA     O1 4086   7.733   0.102   0.911 -0.3380 -0.2486 -0.3127
   25PVA     H4 4087   0.039   0.166   0.922  0.3408 -1.1462  0.7036
   25PVA     C3 4088   7.705   0.291   0.777  0.1929 -1.9745  0.6064
   25PVA     H5 4089   7.735   0.370   0.846 -1.6522 -0.6716  0.0075
   25PVA     H6 4090   7.623   0.338   0.720  1.3963  2.3977  2.0539
   25PVA     C4 4091   0.050   0.222   0.684 -0.8228 -0.4136 -0.9451
   25PVA     H7 4092   0.135   0.177   0.737 -1.0017 -1.2258 -1.3457
   25PVA     H8 4093   0.007   0.135   0.632 -0.6349 -3.2913  3.2169
   25PVA     C5 4094   0.113   0.324   0.587  0.0428 -1.4657 -0.5713
   25PVA     H9 4095   0.049   0.334   0.498  0.6702  1.8247 -0.8005
   25PVA     O2 4096   0.123   0.452   0.652 -0.5407 -0.0495  0.2622
   25PVA    H10 4097   0.214   0.462   0.685  1.1257 -0.5148 -3.6424
   25PVA     C6 4098   0.261   0.273   0.537  0.4499 -0.3342 -0.6683
   25PVA    H11 4099   0.328   0.247   0.620  0.0676 -1.2521 -0.6395
   25PVA    H12 4100   0.242   0.174   0.494 -0.4481  0.1975 -1.5451
   25PVA     C7 4101   0.343   0.349   0.443 -0.7149  0.0529  0.9039
   25PVA    H13 4102   0.370   0.439   0.501  3.4541  0.5016 -1.3329
   25PVA    H14 4103   0.290   0.366   0.348  2.2446  0.4980 -0.8011
   25PVA     C8 4104   0.482   0.289   0.403 -0.2193  0.6731 -0.6036
   25PVA    H15 4105   0.541   0.359   0.344  1.5732  2.0334  2.5242
   25PVA     O3 4106   0.458   0.165   0.353 -0.2017  0.6035 -0.1446
   25PVA    H16 4107   0.517   0.167   0.275  0.4284 -0.3030  0.2940
   25PVA     C9 4108   0.569   0.259   0.536  0.4265  0.1515  1.1414
   25PVA    H17 4109   0.509   0.303   0.617 -1.1617 -0.8398  0.5665
   25PVA    H18 4110   0.570   0.152   0.563  0.5631 -0.4295 -0.9828
   25PVA    C10 4111   0.702   0.335   0.550 -0.3303 -0.3318 -0.1875
   25PVA    H19 4112   0.703   0.346   0.660 -1.9911  1.5530 -0.3107
   25PVA    H20 4113   0.677   0.433   0.508 -3.5847 -1.2567 -0.7274
   25PVA    C11 4114   0.840   0.279   0.510 -0.1403  0.8332 -0.4663
   25PVA    H21 4115   0.871   0.221   0.598 -0.0587  2.3961  0.5852
   25PVA     O4 4116   0.815   0.200   0.388 -0.0718  0.1702  0.1433
   25PVA    H22 4117   0.793   0.111   0.422  1.1717  0.3899  1.6168
   25PVA    C12 4118   0.947   0.392   0.498  0.6637 -0.1175 -0.3540
   25PVA    H23 4119   0.971   0.459   0.581  0.2500  0.9120 -1.0374
   25PVA    H24 4120   0.903   0.465   0.429  1.5992  0.5170 -0.2963
   25PVA    C13 4121   1.077   0.355   0.429 -0.0354 -0.1245 -0.9499
   25PVA    H25 4122   1.067   0.294   0.338  0.9902 -0.4458 -0.8579
   25PVA    H26 4123   1.115   0.276   0.495 -2.3610  0.1763  0.8439
   25PVA    C14 4124   1.193   0.457   0.421 -0.6815 -0.0411 -0.3098
   25PVA    H27 4125   1.272   0.391   0.460 -0.1271 -0.4558 -2.0494
   25PVA     O5 4126   1.197   0.566   0.504 -0.4870 -0.2171  0.0923
   25PVA    H28 4127   1.286   0.570   0.545 -1.7677 -0.1878  3.1538
   25PVA    C15 4128   1.235   0.481   0.274 -0.4645 -0.2864 -0.2344
   25PVA    H29 4129   1.152   0.441   0.214  1.4414  0.4851 -3.6298
   25PVA    H30 4130   1.313   0.404   0.271 -0.8940 -1.2693  4.9632
   25PVA    C16 4131   1.269   0.622   0.214 -0.1311  0.1989 -0.4224
   25PVA    H31 4132   1.177   0.681   0.219  0.3844  1.1865 -2.0797
   25PVA    H32 4133   1.347   0.686   0.258  1.6046  1.5015 -4.7925
   25PVA    C17 4134   1.303   0.593   0.064  0.1148 -0.7186 -0.3082
   25PVA    H33 4135   1.326   0.486   0.054  1.4618 -0.2319 -5.0855
   25PVA     O6 4136   1.187   0.612   8.090 -0.3813  0.6551 -0.2623
   25PVA    H34 4137   1.145   0.698   0.015  0.0420  0.5043  1.2659
   25PVA    C18 4138   1.413   0.685   0.008 -0.2780  0.6499  0.1667
   25PVA    H35 4139   1.400   0.791   0.030  1.1671  1.1542 -1.2310
   25PVA    H36 4140   1.511   0.663   0.052 -1.1045 -1.3032  1.2175
   25PVA    C19 4141   1.440   0.668   7.950  0.8002 -0.8471 -1.3248
   25PVA    H37 4142   1.378   0.743   7.901 -2.5111 -0.9739  2.2231
   25PVA    H38 4143   1.406   0.571   7.913 -3.1684  0.3420 -1.1884
   25PVA    C20 4144   1.580   0.703   7.907  0.8797  0.0742  0.7034
   25PVA    H39 4145   1.599   0.800   7.954  1.1644  0.2888  0.1472
   25PVA     O7 4146   1.572   0.712   7.770  0.5217 -0.8044  0.1803
   25PVA    H40 4147   1.483   0.689   7.739 -0.1419  0.0861  1.3280
   25PVA    C21 4148   1.680   0.595   7.925  0.2001  0.1157  0.5209
   25PVA    H41 4149   1.629   0.529   7.996 -0.9023  0.2486 -0.1247
   25PVA    H42 4150   1.682   0.524   7.841  1.8517  1.3879 -0.5841
   25PVA    C22 4151   1.833   0.640   7.955  0.5965 -0.4531  0.3083
   25PVA    H43 4152   1.875   0.690   7.867 -2.4973 -0.2789 -1.1659
   25PVA    H44 4153   1.823   0.714   8.036  0.5552 -0.0019 -0.1045
   25PVA    C23 4154   1.934   0.535   8.017  0.6589  0.0771  0.3840
   25PVA    H45 4155   2.016   0.598   8.054 -2.4717  4.5694  0.3642
   25PVA     O8 4156   1.889   0.476   0.045 -0.4728 -0.2747  0.2881
   25PVA    H46 4157   1.887   0.559   0.096  0.4997  0.0510 -0.1881
   25PVA    C24 4158   1.974   0.424   7.916 -0.5871  0.9310  0.4329
   25PVA    H47 4159   1.889   0.406   7.849  0.7709 -0.9983 -0.8881
   25PVA    H48 4160   2.052   0.469   7.853  1.2002 -1.9660  0.3712
   25PVA    C25 4161   2.027   0.294   7.969 -0.8819 -0.2999  0.0339
   25PVA    H49 4162   1.959   0.265   8.051 -0.0673  0.7873  1.1126
   25PVA    H50 4163   2.048   0.227   7.885  0.3809  0.1163  0.0007
   25PVA    C26 4164   2.175   0.309   8.040  0.3390  0.6903 -0.3265
   25PVA    H51 4165   2.150   0.348   0.042  1.8101  0.2510  0.2381
   25PVA     O9 4166   2.259   0.399   7.957 -0.9953  0.0542 -0.7938
   25PVA    H52 4167   2.226   0.416   7.867  1.5346  0.2155 -1.7679
   25PVA    C27 4168   2.239   0.176   8.067 -0.1645  0.2864 -0.9835
   25PVA    H53 4169   2.293   0.144   7.976  0.0750 -1.5425 -0.2503
   25PVA    H54 4170   2.176   0.098   0.014 -1.9320 -0.7225 -4.8115
   25PVA    C28 4171   2.349   0.199   0.083  0.8910 -0.3118  0.6009
   25PVA    H55 4172   2.286   0.241   0.162  0.9000 -2.3719  1.8031
   25PVA    H56 4173   2.432   0.266   0.057 -0.3943  1.6788  1.4904
   25PVA    C29 4174   2.441   0.081   0.126 -0.0771  0.0422  0.6301
   25PVA    H57 4175   2.367   0.023   0.183  0.4894 -4.6648 -2.7917
   25PVA    O10 4176   2.466   7.681   0.003  0.2874 -1.1307 -0.1592
   25PVA    H58 4177   2.405   0.022   8.029 -0.4464 -0.6860  0.5948
   25PVA    C30 4178   2.552   0.105   0.224 -0.8295 -1.4623 -0.3003
   25PVA    H59 4179   2.651   0.128   0.182 -2.6370  0.4561 -3.9706
   25PVA    H60 4180   2.524   0.200   0.270  2.1488  2.2434 -5.1257
   25PVA    C31 4181   2.582   0.010   0.343  0.1531  0.3706  0.2930
   25PVA    H61 4182   2.647   7.618   0.299  0.3096  1.1038 -0.7908
   25PVA    H62 4183   2.486   7.650   0.371  0.0569 -0.5003 -1.3067
   25PVA    C32 4184   2.637   0.075   0.471  0.2444 -0.2215  0.3930
   25PVA    H63 4185   2.626   0.184   0.457 -1.1411 -0.2194  1.2936
   25PVA    O11 4186   2.777   0.060   0.481 -0.2688  0.0445  0.1163
   25PVA    H64 4187   2.822   0.145   0.466  1.1363 -0.1995  2.3830
   25PVA    C33 4188   2.573   0.024   0.594  0.3280 -1.0487  0.6704
   25PVA    H65 4189   2.614   7.612   0.623  0.0787 -1.2262  0.4400
   25PVA    H66 4190   2.468   0.008   0.569  0.9516 -2.5817 -1.1923
   25PVA    C34 4191   2.583   0.112   0.721  0.2906  0.9064 -0.2902
   25PVA    H67 4192   2.685   0.098   0.759 -1.2371  1.8446  4.8013
   25PVA    H68 4193   2.596   0.214   0.685 -0.8686  2.4791  3.3372
   25PVA    C35 4194   2.472   0.085   0.831 -0.8744 -0.2894  0.0276
   25PVA    H69 4195   2.433   7.667   0.827 -1.1806 -0.3282  2.5713
   25PVA    O12 4196   2.536   0.086   0.963 -0.2402 -0.7352 -0.2836
   25PVA    H70 4197   2.630   0.110   0.951  0.1362 -2.2655 -0.5514
   25PVA    C36 4198   2.367   0.188   0.810 -0.3041  0.6468 -1.5674
   25PVA    H71 4199   2.405   0.288   0.787  1.0889 -0.0354 -2.3526
   25PVA    H72 4200   2.319   0.161   0.715  0.9792  1.0740 -2.3567
   25PVA    C37 4201   2.271   0.195   0.923  0.7348  0.9957  0.1096
   25PVA    H73 4202   2.317   0.277   0.979  3.3431 -0.9932  1.0826
   25PVA    H74 4203   2.279   0.105   0.985  0.5609  1.5654  0.9816
   25PVA    C38 4204   2.110   0.216   0.899  0.1368 -1.1914  0.7821
   25PVA    H75 4205   2.110   0.307   0.838 -0.9834 -0.5346  1.7178
   25PVA    O13 4206   2.053   0.246   1.029 -0.1652 -0.0466  0.4227
   25PVA    H76 4207   2.101   0.320   1.070 -1.0939  0.5825  0.4207
   25PVA    C39 4208   2.037   0.090   0.828 -0.4918 -0.3670 -0.8704
   25PVA    H77 4209   2.048   0.011   0.903  0.8026  0.2588 -0.3880
   25PVA    H78 4210   2.084   0.089   0.729  0.6960  1.3705 -0.3621
   25PVA    C40 4211   1.884   0.080   0.807  0.3598 -0.6552  0.5939
   25PVA    H79 4212   1.844   0.108   0.906  2.4289  1.1088  1.0331
   25PVA    H80 4213   1.863   7.658   0.815 -1.6219 -0.2458  1.5787
   25PVA    C41 4214   1.802   0.144   0.687  0.3382 -1.1371 -0.1860
   25PVA    H81 4215   1.840   0.246   0.692  2.7059 -2.0204  2.1639
   25PVA    O14 4216   1.831   0.063   0.571  0.4165  0.1830 -0.6086
   25PVA    H82 4217   1.796   0.085   0.483 -0.4182 -0.0308 -0.3377
   25PVA    C42 4218   1.653   0.162   0.719 -0.8093  0.0982 -0.8858
   25PVA    H83 4219   1.602   0.068   0.742 -2.7254  1.4937  1.1306
   25PVA    H84 4220   1.664   0.214   0.815  2.0069 -1.4485 -0.2885
   25PVA    C43 4221   1.572   0.275   0.652 -0.2125  1.2422  0.2271
   25PVA    H85 4222   1.534   0.227   0.561  0.2484  0.6941  0.3152
   25PVA    H86 4223   1.637   0.353   0.612  0.6491 -0.9610 -3.0599
   25PVA    C44 4224   1.437   0.314   0.715 -0.7583  0.1695 -0.5163
   25PVA    H87 4225   1.464   0.329   0.820 -1.8896 -0.4802 -0.1235
   25PVA    O15 4226   1.395   0.447   0.671 -0.3258 -0.1064  0.0162
   25PVA    H88 4227   1.338   0.477   0.743  4.5213  4.5857  2.5694
   25PVA    C45 4228   1.307   0.229   0.704  0.9764  0.8983  0.6957
   25PVA    H89 4229   1.276   0.222   0.599  0.3065 -3.2982  1.0147
   25PVA    H90 4230   1.325   0.124   0.730 -2.5648  0.7006  3.0081
   25PVA    C46 4231   1.178   0.286   0.782 -0.1157  0.3277  0.1664
   25PVA    H91 4232   1.201   0.307   0.887 -2.0762 -1.1924  0.9799
   25PVA    H92 4233   1.155   0.373   0.721  1.4476  2.1412  2.0278
   25PVA    C47 4234   1.060   0.184   0.800 -0.2621 -0.6670  0.4802
   25PVA    H93 4235   1.076   0.146   0.902  2.1127 -0.9324  0.0747
   25PVA    O16 4236   0.949   0.261   0.800 -0.0946  0.0471 -0.6865
   25PVA    H94 4237   0.901   0.201   0.859 -1.7335 -1.4314 -3.3341
   25PVA    C48 4238   1.023   0.071   0.704  0.6193  0.5984 -1.3151
   25PVA    H95 4239   1.030   0.091   0.597  1.3306  0.8802 -1.2212
   25PVA    H96 4240   1.111   0.007   0.710 -0.7089 -1.1981  1.8884
   25PVA    C49 4241   0.910   7.659   0.743 -0.9654 -0.3111  0.2514
   25PVA    H97 4242   0.899   7.654   0.852 -2.1197 -3.6086  0.0910
   25PVA    H98 4243   0.955   7.565   0.709  2.4991  1.3062 -0.0442
   25PVA    C50 4244   0.765   7.668   0.686 -1.0937 -0.2840 -0.2000
   25PVA    H99 4245   0.720   0.082   0.702 -3.4508 -1.4029  0.4952
   25PVA    O17 4246   0.771   7.660   0.549 -0.1787 -0.2312 -0.7482
   25PVA   H100 4247   0.726   7.577   0.526 -3.9483  0.4878  2.9546
   25PVA    C51 4248   0.673   7.571   0.755 -0.3989  0.9561 -0.3745
   25PVA   H101 4249   0.743   7.491   0.728  0.7558  3.1817 -5.0360
   25PVA   H102 4250   0.689   7.589   0.862 -0.7741 -1.9118  0.2674
   26PVA     C1 4251   4.937   5.914   1.691 -0.1417  0.1658  0.4341
   26PVA     H1 4252   5.019   5.860   1.739  0.4771 -0.1350 -0.9074
   26PVA     H2 4253   4.986   5.972   1.612  1.0928  2.0699  2.5047
   26PVA     C2 4254   4.866   6.012   1.782 -0.2630  0.4209 -0.9005
   26PVA     H3 4255   4.950   6.035   1.849 -2.0756 -0.2616  1.7781
   26PVA     O1 4256   4.808   6.127   1.729  0.6100  0.0765  0.1054
   26PVA     H4 4257   4.711   6.132   1.732  0.4807  3.1366 -2.9009
   26PVA     C3 4258   4.768   5.923   1.872 -0.3906 -0.0384 -0.4949
   26PVA     H5 4259   4.809   5.827   1.907 -0.5855  0.3610  0.8994
   26PVA     H6 4260   4.675   5.888   1.825 -1.1057 -0.0655  0.8673
   26PVA     C4 4261   4.725   5.986   2.011  0.5357 -0.1261  0.2010
   26PVA     H7 4262   4.624   6.027   1.997  1.4816  2.2275 -0.2185
   26PVA     H8 4263   4.780   6.080   2.027 -0.2619  0.1646  1.3333
   26PVA     C5 4264   4.728   5.878   2.118 -0.5055  0.8954 -0.6509
   26PVA     H9 4265   4.819   5.820   2.097  1.1794  3.0725  0.2228
   26PVA     O2 4266   4.610   5.794   2.121  0.0622 -0.5556  0.3520
   26PVA    H10 4267   4.568   5.799   2.033  2.0231  0.2692 -0.5838
   26PVA     C6 4268   4.738   5.931   2.261  0.5126 -0.3462  0.6310
   26PVA    H11 4269   4.649   5.992   2.282  0.5669 -1.2639  4.2519
   26PVA    H12 4270   4.733   5.855   2.339  0.3048 -0.0656  0.8949
   26PVA     C7 4271   4.871   6.003   2.282  1.2327  0.4846  0.8213
   26PVA    H13 4272   4.866   6.107   2.246  2.0241  1.1900  2.6254
   26PVA    H14 4273   4.966   5.966   2.242  0.0782 -3.7635  1.4763
   26PVA     C8 4274   4.883   6.036   2.431 -1.5663  0.3095  0.5788
   26PVA    H15 4275   4.896   5.934   2.470  2.3488  0.0599 -0.8853
   26PVA     O3 4276   4.775   6.110   2.497  0.4500  0.6623  0.2104
   26PVA    H16 4277   4.696   6.055   2.487  2.3772 -2.3661  0.1303
   26PVA     C9 4278   5.014   6.126   2.457 -0.2618  0.5808  0.2114
   26PVA    H17 4279   5.091   6.095   2.386 -2.3887 -1.8906 -1.1943
   26PVA    H18 4280   5.050   6.123   2.561 -1.0268  0.9042  0.4944
   26PVA    C10 4281   4.997   6.279   2.441 -0.9680 -1.1136  0.3439
   26PVA    H19 4282   4.946   6.283   2.345  0.3030  2.2623 -0.3136
   26PVA    H20 4283   4.942   6.348   2.506  0.3788 -0.2791  0.6379
   26PVA    C11 4284   5.134   6.363   2.434 -0.7520 -0.0636 -0.6921
   26PVA    H21 4285   5.209   6.335   2.360 -1.4079  4.3941 -3.4462
   26PVA     O4 4286   5.204   6.364   2.565  0.4195  0.4102 -0.5557
   26PVA    H22 4287   5.156   6.411   2.635 -0.9487  0.7439 -1.6792
   26PVA    C12 4288   5.100   6.515   2.394  1.2853 -0.5988  0.3646
   26PVA    H23 4289   5.001   6.522   2.347  1.1788  1.2242  0.7978
   26PVA    H24 4290   5.095   6.583   2.480 -1.5233  1.9809 -1.6241
   26PVA    C13 4291   5.195   6.570   2.288 -0.3720  0.3745  1.0070
   26PVA    H25 4292   5.220   6.495   2.212  3.6530  0.5824  1.8782
   26PVA    H26 4293   5.292   6.570   2.340 -1.2038 -3.7819  2.9963
   26PVA    C14 4294   5.149   6.701   2.214  0.0390 -0.0875 -0.3901
   26PVA    H27 4295   5.054   6.661   2.177 -2.6088 -0.2540  5.5724
   26PVA     O5 4296   5.235   6.747   2.106 -1.5891 -0.5112  1.1910
   26PVA    H28 4297   5.283   6.679   2.056  3.2045  1.0718  3.1240
   26PVA    C15 4298   5.106   6.814   2.311 -0.8167  0.5932  1.2496
   26PVA    H29 4299   5.055   6.763   2.393 -1.6584 -2.5227 -1.0267
   26PVA    H30 4300   5.024   6.873   2.268 -2.6358 -1.8239  1.2173
   26PVA    C16 4301   5.215   6.927   2.331 -1.0028 -0.5792 -0.0225
   26PVA    H31 4302   5.300   6.918   2.263  0.4100  0.3163  1.5553
   26PVA    H32 4303   5.165   7.023   2.314 -3.4437 -1.7724 -0.0038
   26PVA    C17 4304   5.283   6.919   2.473 -0.1720 -0.4997  0.3433
   26PVA    H33 4305   5.341   6.826   2.473 -0.5316 -0.8099 -2.9021
   26PVA     O6 4306   5.206   6.921   2.589  0.1730  0.4454  0.3909
   26PVA    H34 4307   5.217   6.827   2.613  1.2899  0.6911  0.8930
   26PVA    C18 4308   5.395   7.026   2.490 -0.5352 -0.0122  0.6507
   26PVA    H35 4309   5.345   7.121   2.512 -1.3529 -0.0299 -1.0070
   26PVA    H36 4310   5.439   6.999   2.587 -2.1791 -0.8934  1.1732
   26PVA    C19 4311   5.512   7.043   2.397  0.2568  0.5897  0.3274
   26PVA    H37 4312   5.485   7.055   2.291  1.7483  1.3733  0.0208
   26PVA    H38 4313   5.583   6.961   2.382 -0.9994 -0.9422  2.2464
   26PVA    C20 4314   5.597   7.163   2.413 -0.7488 -0.1191 -0.4042
   26PVA    H39 4315   5.544   7.238   2.473 -1.6018 -0.7165 -0.3995
   26PVA     O7 4316   5.697   7.123   2.513  0.6135  1.2106 -0.3404
   26PVA    H40 4317   5.765   7.095   2.450  1.0985 -0.9934  1.0610
   26PVA    C21 4318   5.666   7.244   2.291 -0.6143 -0.4110  0.5756
   26PVA    H41 4319   5.743   7.313   2.328 -2.2114  2.2461 -0.7502
   26PVA    H42 4320   5.594   7.323   2.269  2.2499  3.9319  4.8281
   26PVA    C22 4321   5.727   7.165   2.180  0.7503  0.7222  1.0690
   26PVA    H43 4322   5.817   7.105   2.196 -0.6807 -1.8820 -0.0144
   26PVA    H44 4323   5.647   7.098   2.147  1.9439 -0.9514  1.4315
   26PVA    C23 4324   5.747   7.258   2.049  0.4890 -0.1691  0.3129
   26PVA    H45 4325   5.665   7.331   2.044 -0.7679 -1.6017 -1.3447
   26PVA     O8 4326   5.729   7.178   1.932 -0.1199 -0.9748  1.0481
   26PVA    H46 4327   5.808   7.146   1.885 -0.8764  0.3030 -1.1991
   26PVA    C24 4328   5.879   7.355   2.048  0.4885 -0.1461  0.3137
   26PVA    H47 4329   5.888   7.384   1.943  0.0329 -0.0873  0.2915
   26PVA    H48 4330   5.865   7.438   2.119  1.1936  1.8224 -1.7573
   26PVA    C25 4331   6.014   7.303   2.095 -0.8343  0.4173  0.8008
   26PVA    H49 4332   6.048   7.219   2.033  5.7217  1.0777  2.6854
   26PVA    H50 4333   5.997   7.272   2.199 -3.6687 -3.3875 -0.5783
   26PVA    C26 4334   6.131   7.405   2.079 -0.2186 -0.1263  0.3951
   26PVA    H51 4335   6.085   7.497   2.116 -1.6601 -0.1961 -1.1338
   26PVA     O9 4336   6.165   7.416   1.940 -1.1003  0.1051  0.4008
   26PVA    H52 4337   6.188   7.510   1.930 -0.4517 -0.3119 -4.5619
   26PVA    C27 4338   6.267   7.357   2.154 -0.2799  0.1485 -0.2020
   26PVA    H53 4339   6.306   7.266   2.106  2.6466  1.1055  0.1621
   26PVA    H54 4340   6.230   7.313   2.248 -1.5954  0.2861 -0.6326
   26PVA    C28 4341   6.369   7.466   2.172  0.5219  0.4275 -0.8527
   26PVA    H55 4342   6.344   7.569   2.145  1.3874  0.2783 -2.2892
   26PVA    H56 4343   6.403   7.480   2.275 -1.2824 -3.7071  0.5325
   26PVA    C29 4344   6.505   7.414   2.112 -0.2075  0.6331 -1.0842
   26PVA    H57 4345   6.580   7.491   2.128 -1.1021  1.0443  1.6535
   26PVA    O10 4346   6.552   7.320   2.211  0.6750 -0.2106 -0.0550
   26PVA    H58 4347   6.601   7.368   2.279  1.0638  1.1848 -1.2610
   26PVA    C30 4348   6.517   7.355   1.966  0.1497  0.2081  0.3985
   26PVA    H59 4349   6.563   7.256   1.972  2.8200  1.2878 -0.7644
   26PVA    H60 4350   6.417   7.339   1.924 -0.3234 -2.2565  2.2008
   26PVA    C31 4351   6.612   7.427   1.874  1.6787  0.0510 -0.2217
   26PVA    H61 4352   6.707   7.422   1.929  2.0875 -3.8070 -0.9639
   26PVA    H62 4353   6.579   7.530   1.891  4.2676  1.1530 -1.4102
   26PVA    C32 4354   6.630   7.363   1.729  0.4543  0.2679 -0.2943
   26PVA    H63 4355   6.529   7.334   1.698  0.6404 -0.2173 -0.4554
   26PVA    O11 4356   6.690   7.239   1.744 -0.3742  0.7557 -0.3373
   26PVA    H64 4357   6.778   7.254   1.784  0.0930 -0.0575 -1.0071
   26PVA    C33 4358   6.703   7.435   1.619  0.5947 -0.6144  0.3074
   26PVA    H65 4359   6.804   7.442   1.661  1.4614 -1.1057 -1.6076
   26PVA    H66 4360   6.649   7.530   1.617 -1.8835 -1.9473 -0.1629
   26PVA    C34 4361   6.703   7.375   1.480  0.0571  1.2538  0.8929
   26PVA    H67 4362   6.773   7.291   1.477 -1.0779  0.1028  3.4552
   26PVA    H68 4363   6.601   7.334   1.470  0.0562  1.8877 -5.1558
   26PVA    C35 4364   6.737   7.462   1.350 -0.4550  0.2510 -0.9633
   26PVA    H69 4365   6.687   7.557   1.372 -0.7828 -0.7621  3.7345
   26PVA    O12 4366   6.883   7.473   1.340  0.0321 -0.9563  0.3312
   26PVA    H70 4367   6.914   7.384   1.315 -0.7313  0.1326 -6.3235
   26PVA    C36 4368   6.666   7.408   1.224  0.0419 -0.1777 -1.0191
   26PVA    H71 4369   6.564   7.450   1.227 -0.9336 -2.4028  2.4107
   26PVA    H72 4370   6.642   7.301   1.214  0.7292 -0.1904 -3.0560
   26PVA    C37 4371   6.717   7.453   1.076  0.8110 -0.3404 -0.2781
   26PVA    H73 4372   6.807   7.392   1.063  0.2414 -0.8159 -2.4270
   26PVA    H74 4373   6.721   7.563   1.079 -3.3504  0.0633 -2.2755
   26PVA    C38 4374   6.627   7.401   0.955 -0.5752 -0.6305  1.7709
   26PVA    H75 4375   6.527   7.398   1.000  1.4171 -5.5501  7.1404
   26PVA    O13 4376   6.649   7.265   0.915 -0.2988  0.1066  0.0418
   26PVA    H76 4377   6.564   7.242   0.874 -2.5071  1.1383  3.5598
   26PVA    C39 4378   6.653   7.491   0.830  0.7074  0.4268 -0.7255
   26PVA    H77 4379   6.555   7.471   0.786 -0.2881  4.2734 -0.6567
   26PVA    H78 4380   6.641   7.600   0.832 -2.9186  0.2160  3.1334
   26PVA    C40 4381   6.753   7.439   0.727  0.3879 -0.4635 -0.4994
   26PVA    H79 4382   6.702   7.363   0.668  0.2623  0.8285 -2.1535
   26PVA    H80 4383   6.826   7.377   0.780 -0.7922 -0.7366  0.8410
   26PVA    C41 4384   6.816   7.544   0.632  0.2315  0.5235 -0.4942
   26PVA    H81 4385   6.755   7.634   0.625  2.0284  1.6738 -2.3583
   26PVA    O14 4386   6.844   7.490   0.501  0.3108  0.5944 -0.3875
   26PVA    H82 4387   6.765   7.508   0.446 -0.0874 -1.2717 -0.4775
   26PVA    C42 4388   6.947   7.593   0.715 -0.8681 -0.1147  0.8387
   26PVA    H83 4389   6.981   0.003   0.671  1.7294 -2.6689 -3.2846
   26PVA    H84 4390   6.918   7.610   0.819  0.0295 -2.3763  1.5133
   26PVA    C43 4391   7.064   7.498   0.720  0.2945  0.5044 -1.4982
   26PVA    H85 4392   7.112   7.520   0.623 -1.9547 -2.7095 -3.5571
   26PVA    H86 4393   7.037   7.392   0.712  3.9921 -0.8535  1.1266
   26PVA    C44 4394   7.163   7.530   0.833  1.1525  0.3495 -0.2641
   26PVA    H87 4395   7.153   7.640   0.836 -0.3969  0.2756 -1.3371
   26PVA    O15 4396   7.108   7.503   0.959  0.0421  0.1662  0.2812
   26PVA    H88 4397   7.038   7.438   0.942 -1.0140  1.8741 -2.7154
   26PVA    C45 4398   7.296   7.479   0.809  0.3251 -0.2733  0.0955
   26PVA    H89 4399   7.314   7.476   0.701 -0.5766 -0.9960 -0.0463
   26PVA    H90 4400   7.298   7.370   0.823 -1.0845 -0.1951  1.0879
   26PVA    C46 4401   7.414   7.530   0.903  0.8463 -0.3853 -0.0474
   26PVA    H91 4402   7.429   7.636   0.880 -2.0339 -0.0354 -0.6603
   26PVA    H92 4403   7.375   7.518   1.005 -0.4588 -3.5455 -0.7838
   26PVA    C47 4404   7.558   7.469   0.885  0.1190 -0.2983  0.0821
   26PVA    H93 4405   7.553   7.360   0.875  1.8967 -0.2921 -1.6831
   26PVA    O16 4406   7.637   7.496   1.003 -0.5734 -0.3204 -0.7534
   26PVA    H94 4407   7.728   7.469   0.981  0.9052  1.4988  2.3843
   26PVA    C48 4408   7.635   7.497   0.758 -0.2864  1.4926  0.4113
   26PVA    H95 4409   7.603   7.442   0.669  2.0967  0.3673  0.1563
   26PVA    H96 4410   7.607   7.602   0.744  1.1045  1.6621 -1.5263
   26PVA    C49 4411   0.022   7.486   0.765 -1.0948  0.2181  0.7301
   26PVA    H97 4412   0.050   7.384   0.792 -0.3997  0.0036 -0.7232
   26PVA    H98 4413   0.050   7.553   0.847  0.3602  1.1864 -0.4936
   26PVA    C50 4414   0.078   7.536   0.632 -0.3804 -0.0368  0.1320
   26PVA    H99 4415   0.023   7.619   0.584 -1.3340 -0.0833  1.0937
   26PVA    O17 4416   0.061   7.429   0.536  0.4552 -0.2679 -0.5653
   26PVA   H100 4417   7.733   7.413   0.516 -0.4865  0.2311  2.8014
   26PVA    C51 4418   0.224   7.567   0.641  0.1480 -0.5747  0.3163
   26PVA   H101 4419   0.239   7.597   0.745 -4.9415 -1.4751  1.5321
   26PVA   H102 4420   0.224   7.674   0.617  0.5409 -0.6609 -0.1033
   27PVA     C1 4421   4.545   5.714   1.403  0.3309  1.1325 -0.4449
   27PVA     H1 4422   4.523   5.633   1.333 -2.2546  0.0846  1.4505
   27PVA     H2 4423   4.527   5.810   1.352 -2.4283  1.2178  0.5609
   27PVA     C2 4424   4.418   5.700   1.504  0.3557 -0.3782 -0.0190
   27PVA     H3 4425   4.418   5.592   1.525  1.8100 -1.2698 -3.7793
   27PVA     O1 4426   4.297   5.733   1.434 -0.6990 -0.4998 -0.6924
   27PVA     H4 4427   4.225   5.685   1.479 -1.2009  0.4441 -0.4780
   27PVA     C3 4428   4.427   5.782   1.639 -1.4196 -1.1203  0.5016
   27PVA     H5 4429   4.466   5.883   1.621  1.0486 -2.0947 -0.0104
   27PVA     H6 4430   4.516   5.737   1.684 -0.7741 -1.4464 -1.0520
   27PVA     C4 4431   4.302   5.800   1.730  0.3322 -0.3710  0.0512
   27PVA     H7 4432   4.223   5.856   1.679 -1.2207 -2.8084 -0.4372
   27PVA     H8 4433   4.259   5.700   1.748  1.9315 -1.1966 -0.5818
   27PVA     C5 4434   4.345   5.861   1.870 -0.2129 -0.3525 -0.9079
   27PVA     H9 4435   4.421   5.936   1.844 -2.9565  3.2577  0.6904
   27PVA     O2 4436   4.414   5.756   1.939  0.2205  0.0567  0.8735
   27PVA    H10 4437   4.387   5.751   2.032 -0.2554 -2.3004  0.6711
   27PVA     C6 4438   4.249   5.941   1.949  1.2160  0.2005 -0.0832
   27PVA    H11 4439   4.307   5.977   2.036  1.9250 -0.9562 -0.0540
   27PVA    H12 4440   4.221   6.033   1.897  0.7382 -1.1974 -2.4060
   27PVA     C7 4441   4.117   5.873   2.011 -0.5116 -0.9959 -0.3793
   27PVA    H13 4442   4.158   5.780   2.052 -2.2466 -2.4647 -1.8269
   27PVA    H14 4443   4.055   5.839   1.928 -2.9808 -2.6252  1.9630
   27PVA     C8 4444   4.035   5.961   2.108 -0.1891 -0.3602  0.0620
   27PVA    H15 4445   3.976   5.892   2.169 -0.4452 -0.4392 -0.2777
   27PVA     O3 4446   4.129   6.009   2.210  0.0029  0.0445  0.4504
   27PVA    H16 4447   4.108   6.102   2.229 -5.8320 -1.0197  1.0896
   27PVA     C9 4448   3.946   6.066   2.034  0.3305 -0.8190 -0.3964
   27PVA    H17 4449   3.998   6.093   1.941  2.1348  1.5166  1.1524
   27PVA    H18 4450   3.866   6.005   1.990  1.0180 -0.0388 -2.8690
   27PVA    C10 4451   3.889   6.169   2.134  0.1359 -0.1154  0.0092
   27PVA    H19 4452   3.956   6.256   2.137  0.0032  0.2464 -3.4167
   27PVA    H20 4453   3.894   6.129   2.236  0.8250  0.6632  0.2963
   27PVA    C11 4454   3.740   6.205   2.100 -0.9154 -0.6501  0.1127
   27PVA    H21 4455   3.664   6.127   2.088 -3.1302  1.2110  1.1508
   27PVA     O4 4456   3.756   6.267   1.970 -0.4689 -0.5401  0.9567
   27PVA    H22 4457   3.803   6.212   1.905 -2.9000 -1.9169  0.2009
   27PVA    C12 4458   3.682   6.315   2.181 -0.4953  0.1371  0.1544
   27PVA    H23 4459   3.719   6.303   2.284 -0.5428 -1.7260 -0.0028
   27PVA    H24 4460   3.751   6.395   2.153 -2.1980  1.4481 -0.4926
   27PVA    C13 4461   3.537   6.349   2.167 -0.6384 -0.7279  0.1293
   27PVA    H25 4462   3.490   6.256   2.202  3.3765 -2.6983  0.8823
   27PVA    H26 4463   3.520   6.369   2.060 -2.7916 -0.2618  0.5132
   27PVA    C14 4464   3.485   6.476   2.238  0.6019 -0.9270 -0.2437
   27PVA    H27 4465   3.512   6.474   2.344 -1.3861 -2.2005  0.2977
   27PVA     O5 4466   3.555   6.587   2.173  0.6829  0.5821  0.1818
   27PVA    H28 4467   3.652   6.579   2.171  0.9184 -2.4126  5.4942
   27PVA    C15 4468   3.331   6.486   2.224 -0.7325  0.5907  1.2418
   27PVA    H29 4469   3.283   6.396   2.185 -2.2864  2.7398 -2.3314
   27PVA    H30 4470   3.298   6.555   2.145 -3.6132  0.5147  2.2783
   27PVA    C16 4471   3.264   6.536   2.359 -0.1713 -1.2535  0.3234
   27PVA    H31 4472   3.301   6.480   2.446 -0.3811 -0.2666  1.0582
   27PVA    H32 4473   3.309   6.635   2.376 -2.5295 -0.4737  2.6641
   27PVA    C17 4474   3.117   6.541   2.379 -0.1467 -0.6982 -0.4183
   27PVA    H33 4475   3.081   6.438   2.378 -3.1204 -0.0487  4.7704
   27PVA     O6 4476   3.040   6.596   2.271 -0.2055  0.5433  0.4777
   27PVA    H34 4477   3.062   6.689   2.251  1.4122 -0.2386 -1.7658
   27PVA    C18 4478   3.059   6.608   2.502  0.0856  1.2714 -0.3176
   27PVA    H35 4479   3.127   6.572   2.580  0.6058  0.4357 -1.1369
   27PVA    H36 4480   3.069   6.715   2.482 -0.0412  0.9361 -2.4803
   27PVA    C19 4481   2.904   6.577   2.543 -0.8150 -0.3859  0.8948
   27PVA    H37 4482   2.899   6.468   2.551  2.7738 -0.6075  1.7987
   27PVA    H38 4483   2.845   6.603   2.454 -0.7375 -0.3686  0.8491
   27PVA    C20 4484   2.832   6.639   2.668  0.8219 -0.4434  0.3560
   27PVA    H39 4485   2.893   6.608   2.754  4.1282  0.2931 -1.5241
   27PVA     O7 4486   2.852   6.778   2.657 -0.5069 -0.1657 -0.1411
   27PVA    H40 4487   2.947   6.792   2.641  0.1517 -2.7731  1.0278
   27PVA    C21 4488   2.675   6.611   2.701  0.4866 -0.6174 -0.3391
   27PVA    H41 4489   2.640   6.533   2.631  2.4779 -1.3933 -0.5406
   27PVA    H42 4490   2.663   6.569   2.801 -4.0243  0.1986 -0.3333
   27PVA    C22 4491   2.564   6.723   2.698  0.6043  0.6806 -0.5887
   27PVA    H43 4492   2.585   6.810   2.760  3.9411 -1.1359  1.0805
   27PVA    H44 4493   2.580   6.769   2.599  1.7438 -1.2726 -1.3793
   27PVA    C23 4494   2.423   6.671   2.723 -1.1160 -0.4937 -0.5526
   27PVA    H45 4495   2.401   6.582   2.663 -2.8516  0.4110 -1.3460
   27PVA     O8 4496   2.340   6.784   2.684  0.0900 -0.4086  0.3330
   27PVA    H46 4497   2.349   6.793   2.587 -0.9401 -0.4429  0.2223
   27PVA    C24 4498   2.398   6.653   2.883  0.7286  0.2636  0.6634
   27PVA    H47 4499   2.468   6.577   2.918  1.5559  0.4817 -0.4629
   27PVA    H48 4500   2.426   6.749   2.929  1.7539 -1.2938  3.5371
   27PVA    C25 4501   2.252   6.622   2.925  0.5537 -0.5451  0.2286
   27PVA    H49 4502   2.252   6.534   2.991  1.7674  1.4840  3.1597
   27PVA    H50 4503   2.205   6.590   2.831  0.6270 -1.3331  0.4517
   27PVA    C26 4504   2.186   6.737   3.012  0.0651  0.3731 -0.0788
   27PVA    H51 4505   2.254   6.771   3.092 -4.4040  1.5040  3.7236
   27PVA     O9 4506   2.170   6.829   2.914  0.1022  0.4990 -0.1980
   27PVA    H52 4507   2.224   6.782   2.848  0.1269  1.2580 -0.7362
   27PVA    C27 4508   2.048   6.716   3.080  0.0354 -0.5483  0.4995
   27PVA    H53 4509   2.053   6.623   3.137  1.0328  0.6711  2.5048
   27PVA    H54 4510   1.976   6.722   2.997 -0.2691  3.5630  0.8187
   27PVA    C28 4511   2.027   6.817   3.193  0.1124 -2.0933 -0.4443
   27PVA    H55 4512   2.084   6.813   3.286  0.7587  0.7632 -0.6107
   27PVA    H56 4513   2.060   6.917   3.161 -0.8657 -0.9750  1.8255
   27PVA    C29 4514   1.882   6.859   3.226  0.4637 -0.4007 -2.0252
   27PVA    H57 4515   1.835   6.927   3.154  1.6454 -1.0045 -3.4285
   27PVA    O10 4516   1.808   6.750   3.261  0.3709 -0.3691 -0.0313
   27PVA    H58 4517   1.744   6.769   3.331  0.0890  2.4578 -0.9491
   27PVA    C30 4518   1.885   6.943   3.359 -1.0293 -0.7504  0.0444
   27PVA    H59 4519   1.934   7.039   3.338  0.2425 -1.4065 -0.0613
   27PVA    H60 4520   1.954   6.905   3.435 -0.0892  0.5049 -0.1397
   27PVA    C31 4521   1.754   6.994   3.422  0.7434  1.6613  0.5082
   27PVA    H61 4522   1.717   6.903   3.470  4.5115  0.7494  2.0246
   27PVA    H62 4523   1.682   7.026   3.345 -0.0288  1.5034  1.1619
   27PVA    C32 4524   1.782   7.110   3.526  0.6408 -0.2910 -0.0011
   27PVA    H63 4525   1.851   7.065   3.598  2.6725  2.5812  0.0064
   27PVA    O11 4526   1.861   7.217   3.473  0.4559  0.3071 -0.1389
   27PVA    H64 4527   1.811   7.228   3.390  0.8058 -0.0394 -0.4026
   27PVA    C33 4528   1.655   7.164   3.595  0.3022 -0.3968 -0.1544
   27PVA    H65 4529   1.662   7.206   3.696 -1.8341 -3.0570  1.2463
   27PVA    H66 4530   1.589   7.078   3.614  0.9506 -0.6397  1.0800
   27PVA    C34 4531   1.583   7.281   3.529  0.7112 -0.7988 -0.3863
   27PVA    H67 4532   1.654   7.356   3.493 -0.5130  0.1795 -0.8456
   27PVA    H68 4533   1.552   7.235   3.434  3.5249  0.1666 -1.8882
   27PVA    C35 4534   1.451   7.335   3.593 -0.8666  0.5607  0.0788
   27PVA    H69 4535   1.480   7.426   3.647  3.0440  0.8351 -2.1031
   27PVA    O12 4536   1.404   7.244   3.686 -0.1200 -0.5276 -0.1145
   27PVA    H70 4537   1.387   7.301   3.763  1.7875 -1.1872  0.8815
   27PVA    C36 4538   1.333   7.359   3.502  0.5985  0.1378 -0.3241
   27PVA    H71 4539   1.379   7.429   3.431  5.8720 -2.6216 -0.1370
   27PVA    H72 4540   1.312   7.268   3.444 -2.0571 -0.5391  1.5346
   27PVA    C37 4541   1.197   7.411   3.560  1.3890 -0.8875  0.2430
   27PVA    H73 4542   1.202   7.520   3.568 -0.4323 -0.8602  2.0125
   27PVA    H74 4543   1.176   7.369   3.660  1.3206 -2.6065 -0.4466
   27PVA    C38 4544   1.055   7.383   3.498  0.5202  0.1650  1.3773
   27PVA    H75 4545   1.021   7.280   3.514 -1.0716 -0.4563 -3.9281
   27PVA    O13 4546   0.973   7.474   3.543  0.0784 -0.4528 -0.4387
   27PVA    H76 4547   0.963   7.486   3.639  1.2006  1.2257 -0.4854
   27PVA    C39 4548   1.058   7.395   3.341  0.9644  0.8499 -0.5247
   27PVA    H77 4549   1.162   7.419   3.317  1.1689  0.8686  0.3274
   27PVA    H78 4550   0.999   7.487   3.333  1.1475  1.8445  5.1635
   27PVA    C40 4551   0.996   7.278   3.261 -0.1757 -0.7609  0.1299
   27PVA    H79 4552   1.008   7.180   3.307  6.4180 -0.2485  0.4400
   27PVA    H80 4553   0.891   7.310   3.269 -0.5848 -2.1009  0.2650
   27PVA    C41 4554   1.037   7.261   3.118 -0.0807 -0.2590  0.7428
   27PVA    H81 4555   1.138   7.219   3.106 -0.2554 -0.1066 -1.6455
   27PVA    O14 4556   1.039   7.375   3.049 -0.8709 -0.4845  0.5897
   27PVA    H82 4557   1.105   7.430   3.095 -0.7455 -1.0509  1.1040
   27PVA    C42 4558   0.947   7.158   3.050  0.0042  0.4662 -0.8410
   27PVA    H83 4559   0.859   7.152   3.116 -0.3041  1.5406 -1.1458
   27PVA    H84 4560   0.905   7.198   2.957  3.3892  0.5611 -2.4605
   27PVA    C43 4561   1.006   7.014   3.015  0.0027  0.3078 -0.2568
   27PVA    H85 4562   1.024   6.971   3.114 -0.9419  1.6340  0.5196
   27PVA    H86 4563   1.104   7.017   2.965  0.2519 -0.2854  0.1734
   27PVA    C44 4564   0.898   6.923   2.949 -0.6767  0.5050 -0.1937
   27PVA    H87 4565   0.816   6.984   2.911  0.1579  0.0639 -2.9228
   27PVA    O15 4566   0.852   6.834   3.041 -0.0764  1.1089 -0.1248
   27PVA    H88 4567   0.776   6.786   3.003  1.6919 -3.3296  1.2651
   27PVA    C45 4568   0.975   6.830   2.834  0.9988  0.1411  0.3325
   27PVA    H89 4569   1.037   6.749   2.874 -2.4973 -3.8469 -1.6120
   27PVA    H90 4570   1.038   6.897   2.774  0.1026 -0.4945 -1.3834
   27PVA    C46 4571   0.864   6.771   2.750  0.5075  0.3705  0.4911
   27PVA    H91 4572   0.814   6.698   2.814 -0.3966  0.6360  0.1043
   27PVA    H92 4573   0.801   6.851   2.709  2.8137  2.6547  1.1323
   27PVA    C47 4574   0.928   6.689   2.626  0.1951 -0.2064 -1.1576
   27PVA    H93 4575   0.938   6.596   2.684  1.4956  0.8099  0.3524
   27PVA    O16 4576   1.047   6.748   2.580  0.1557 -0.0771  0.5396
   27PVA    H94 4577   1.122   6.691   2.602  0.1298 -2.1937 -3.7029
   27PVA    C48 4578   0.841   6.659   2.509 -0.0746 -0.6827 -1.0237
   27PVA    H95 4579   0.870   6.556   2.484  3.0604 -0.7534  2.1839
   27PVA    H96 4580   0.744   6.641   2.557  0.7630 -0.7244  0.7235
   27PVA    C49 4581   0.837   6.764   2.400  0.0835 -1.0209 -0.0741
   27PVA    H97 4582   0.919   6.749   2.329 -0.3317  0.9585 -1.0352
   27PVA    H98 4583   0.866   6.861   2.443  2.7950 -1.5984 -0.4032
   27PVA    C50 4584   0.706   6.793   2.332  0.7443 -0.0338  1.1609
   27PVA    H99 4585   0.630   6.823   2.406  1.5239  2.5958  1.0168
   27PVA    O17 4586   0.666   6.666   2.270  0.2315 -0.4487 -1.4187
   27PVA   H100 4587   0.578   6.691   2.236 -0.5580 -0.6020  0.4196
   27PVA    C51 4588   0.700   6.907   2.230 -0.9767 -0.3250 -0.3259
   27PVA   H101 4589   0.744   6.996   2.276 -0.0074 -2.0594  2.3162
   27PVA   H102 4590   0.765   6.869   2.150  1.6829  1.6758  0.7462
   28PVA     C1 4591   7.510   7.110   0.877 -0.4904 -0.3345 -0.0758
   28PVA     H1 4592   7.472   7.014   0.839  2.1696 -3.3121  3.9823
   28PVA     H2 4593   7.455   7.189   0.825  0.7072 -0.2234 -1.2152
   28PVA     C2 4594   7.479   7.133   1.034  0.3560  1.3184  0.7614
   28PVA     H3 4595   7.555   7.197   1.080 -0.5495  3.8877 -1.0253
   28PVA     O1 4596   7.468   6.994   1.083 -0.8991  0.1273  0.3180
   28PVA     H4 4597   7.494   7.006   1.176 -2.2881  2.0134  0.5224
   28PVA     C3 4598   7.332   7.190   1.061 -0.2065  0.4987 -0.1867
   28PVA     H5 4599   7.301   7.244   0.971  2.9745 -1.0460 -2.3795
   28PVA     H6 4600   7.266   7.104   1.082  0.4331  0.0634  0.0782
   28PVA     C4 4601   7.310   7.304   1.180  0.5052  0.1184  1.4830
   28PVA     H7 4602   7.301   7.386   1.108  1.1703 -1.3954 -0.4395
   28PVA     H8 4603   7.403   7.292   1.237 -0.1102 -1.8977  2.1418
   28PVA     C5 4604   7.185   7.281   1.272 -1.7448  0.0253 -0.8658
   28PVA     H9 4605   7.183   7.172   1.288 -0.1419 -0.4492 -3.4492
   28PVA     O2 4606   7.076   7.322   1.195 -0.2358 -0.0072 -0.1021
   28PVA    H10 4607   7.068   7.252   1.127  1.2893 -0.5620  0.2580
   28PVA     C6 4608   7.174   7.336   1.424 -0.6622  0.3158  0.7452
   28PVA    H11 4609   7.278   7.334   1.459  0.6398  1.7302 -2.6144
   28PVA    H12 4610   7.130   7.437   1.427 -1.2239  0.2075 -1.8905
   28PVA     C7 4611   7.083   7.255   1.521  0.0069 -0.3054 -0.2137
   28PVA    H13 4612   7.115   7.151   1.526  1.6058  0.2255  1.6783
   28PVA    H14 4613   6.993   7.236   1.461  1.0758 -4.7516 -0.7246
   28PVA     C8 4614   7.062   7.304   1.680  0.0920 -0.9017  0.2583
   28PVA    H15 4615   6.979   7.375   1.676  0.9823  0.1716 -3.5390
   28PVA     O3 4616   7.000   7.186   1.731 -0.3938 -0.0309  0.3453
   28PVA    H16 4617   6.925   7.160   1.675  3.1455 -4.7704 -3.0862
   28PVA     C9 4618   7.185   7.344   1.756  0.6219  0.9836 -0.6715
   28PVA    H17 4619   7.218   7.448   1.742  2.5748  0.5723  0.4022
   28PVA    H18 4620   7.272   7.284   1.728 -0.0632 -0.5412  0.3624
   28PVA    C10 4621   7.210   7.339   1.912 -0.6197  0.0443 -0.1268
   28PVA    H19 4622   7.115   7.345   1.966 -1.4031 -0.4113 -1.4198
   28PVA    H20 4623   7.244   7.236   1.929 -3.2255 -1.6643 -3.9154
   28PVA    C11 4624   7.311   7.439   1.991  1.2584 -0.4600  0.7359
   28PVA    H21 4625   7.273   7.542   1.977 -0.3995 -1.1656 -0.2705
   28PVA     O4 4626   7.445   7.406   1.965 -0.1285  0.1610  0.1627
   28PVA    H22 4627   7.488   7.480   1.918 -1.0641  0.1581 -0.7350
   28PVA    C12 4628   7.293   7.414   2.142  0.4147  0.7493 -1.1152
   28PVA    H23 4629   7.195   7.368   2.159  1.1766 -1.2826 -1.8205
   28PVA    H24 4630   7.361   7.341   2.188 -0.6591  1.6642  2.1212
   28PVA    C13 4631   7.305   7.552   2.227 -0.8100  1.2450  0.2475
   28PVA    H25 4632   7.409   7.587   2.217  0.0555 -1.7430 -3.2857
   28PVA    H26 4633   7.248   7.635   2.184 -1.2906  1.2048  0.7931
   28PVA    C14 4634   7.251   7.553   2.376 -0.6735  0.2256  0.0842
   28PVA    H27 4635   7.335   7.509   2.431  1.1250  0.2156 -2.4748
   28PVA     O5 4636   7.119   7.494   2.379  0.6811 -0.0087  0.0313
   28PVA    H28 4637   7.111   7.397   2.390  2.7983 -0.2090  0.1989
   28PVA    C15 4638   7.231   0.020   2.422  0.6586 -0.4163 -0.4026
   28PVA    H29 4639   7.150   0.069   2.366 -0.2175  1.0719  2.0176
   28PVA    H30 4640   7.328   0.065   2.401  0.2257  2.0756  2.2858
   28PVA    C16 4641   7.202   0.039   2.576  0.3903  0.5038  0.4562
   28PVA    H31 4642   7.158   7.629   2.611 -3.5074  1.0482 -2.2753
   28PVA    H32 4643   7.306   0.041   2.610 -0.2999 -0.5935  2.8870
   28PVA    C17 4644   7.127   0.162   2.632  0.4763  0.6127  0.4824
   28PVA    H33 4645   7.110   0.206   2.533  1.7116  1.1678  0.4930
   28PVA     O6 4646   7.013   0.119   2.697 -0.5087  0.4708 -0.5892
   28PVA    H34 4647   6.967   0.048   2.648 -0.8473  1.5615 -1.9083
   28PVA    C18 4648   7.194   0.273   2.716  0.2175 -0.1476  0.0820
   28PVA    H35 4649   7.293   0.245   2.752  1.2528  3.6853  0.5927
   28PVA    H36 4650   7.232   0.343   2.642  1.0009  1.3744  1.8625
   28PVA    C19 4651   7.120   0.348   2.825 -0.8469 -0.2906 -0.0235
   28PVA    H37 4652   7.076   0.270   2.888  1.5743 -1.7467 -0.0173
   28PVA    H38 4653   7.044   0.411   2.776 -1.6886  0.6259  2.3037
   28PVA    C20 4654   7.212   0.444   2.904 -1.3213 -0.7029 -0.8474
   28PVA    H39 4655   7.279   0.493   2.831 -4.3698 -0.5025 -3.7352
   28PVA     O7 4656   7.305   0.376   2.982  1.1827  0.4402  0.2738
   28PVA    H40 4657   7.243   0.326   3.038 -1.2969  2.0814 -0.8339
   28PVA    C21 4658   7.154   0.561   3.003  0.5557 -0.8238 -0.3869
   28PVA    H41 4659   7.139   0.507   3.097 -2.4367  1.1652  0.4164
   28PVA    H42 4660   7.054   0.593   2.973  0.7551  0.5483  0.3274
   28PVA    C22 4661   7.247   0.679   3.062 -0.0616 -1.5559  0.2628
   28PVA    H43 4662   7.183   0.739   3.128 -1.4358 -2.4755 -0.1939
   28PVA    H44 4663   7.315   0.641   3.140 -2.0281  1.8341  3.9957
   28PVA    C23 4664   7.325   0.772   2.967 -0.2953 -0.6488  0.5580
   28PVA    H45 4665   7.272   0.806   2.877 -1.0442 -1.4890  0.6610
   28PVA     O8 4666   7.439   0.707   2.915  0.6824  0.4534  0.5156
   28PVA    H46 4667   7.465   0.646   2.987 -1.3162 -0.5200  0.4740
   28PVA    C24 4668   7.379   0.904   3.037 -0.5898 -0.4264 -0.4654
   28PVA    H47 4669   7.406   0.979   2.962 -1.0435  2.3393  1.9452
   28PVA    H48 4670   7.297   0.960   3.082 -1.6706 -0.0292 -2.7917
   28PVA    C25 4671   7.495   0.895   3.137 -0.9703  0.0797  1.3334
   28PVA    H49 4672   7.462   0.828   3.218 -1.4779 -1.0793  0.1948
   28PVA    H50 4673   7.581   0.846   3.091 -0.4604 -2.2045  4.3637
   28PVA    C26 4674   7.565   1.030   3.208  0.0223  0.2147 -0.1549
   28PVA    H51 4675   7.571   1.015   3.316 -2.1205  1.7732  0.2595
   28PVA     O9 4676   7.481   1.153   3.201  0.0814 -0.2129 -0.1019
   28PVA    H52 4677   7.417   1.132   3.271 -0.2981  1.2020  0.0102
   28PVA    C27 4678   7.721   1.077   3.188  0.3366  0.1440 -0.2707
   28PVA    H53 4679   7.728   1.149   3.106  0.6411  0.8300  0.3400
   28PVA    H54 4680   0.015   0.986   3.181  1.2921  0.8930 -2.4428
   28PVA    C28 4681   0.024   1.186   3.277 -0.1718  0.9384 -0.5206
   28PVA    H55 4682   7.716   1.260   3.313 -1.9504 -0.3527 -1.3177
   28PVA    H56 4683   0.035   1.148   3.380 -0.7675  0.2734 -0.6911
   28PVA    C29 4684   0.134   1.275   3.198 -0.7490  0.9371 -0.1092
   28PVA    H57 4685   0.129   1.249   3.091  1.1186  4.7047 -1.2702
   28PVA    O10 4686   0.111   1.421   3.203 -1.1653  0.1840 -0.0471
   28PVA    H58 4687   0.018   1.418   3.175 -1.6031 -2.1808  1.4004
   28PVA    C30 4688   0.281   1.235   3.224 -0.1695 -0.2522  0.5064
   28PVA    H59 4689   0.288   1.250   3.333 -1.1091  2.2579  0.2837
   28PVA    H60 4690   0.293   1.131   3.191  6.1667 -1.3044  4.3271
   28PVA    C31 4691   0.387   1.325   3.155  0.3425  0.1157 -1.2420
   28PVA    H61 4692   0.398   1.416   3.215 -1.8232 -0.8904  0.8540
   28PVA    H62 4693   0.482   1.272   3.171  0.3708 -0.8183 -3.9771
   28PVA    C32 4694   0.387   1.350   3.011 -0.1981 -1.0228 -0.0634
   28PVA    H63 4695   0.379   1.246   2.977  0.6999 -2.9427  4.7023
   28PVA    O11 4696   0.291   1.452   2.975 -0.5667  0.4741 -0.8446
   28PVA    H64 4697   0.231   1.464   3.051  0.3890 -0.4961  0.0946
   28PVA    C33 4698   0.525   1.411   2.955  0.4004  0.8355 -0.0293
   28PVA    H65 4699   0.584   1.319   2.955  0.1412  0.6646  0.6523
   28PVA    H66 4700   0.590   1.473   3.018  1.2555 -1.6015  1.6086
   28PVA    C34 4701   0.527   1.464   2.810  0.1799 -0.7613  0.1643
   28PVA    H67 4702   0.429   1.445   2.763 -0.5500  5.0663 -1.5287
   28PVA    H68 4703   0.530   1.574   2.815 -6.0078 -0.0254 -2.5616
   28PVA    C35 4704   0.635   1.434   2.709  0.0361  0.3617  0.2829
   28PVA    H69 4705   0.734   1.457   2.752  1.0777 -0.2570 -1.6634
   28PVA    O12 4706   0.609   1.508   2.593  0.0737  0.2729 -0.0015
   28PVA    H70 4707   0.618   1.459   2.510  1.3066  2.0349 -0.9908
   28PVA    C36 4708   0.664   1.287   2.679  0.6039 -0.0692 -0.7319
   28PVA    H71 4709   0.772   1.271   2.666  0.8671  0.4928  0.5914
   28PVA    H72 4710   0.636   1.218   2.760 -1.2827  1.7073  0.2192
   28PVA    C37 4711   0.618   1.222   2.544 -0.9844  1.0990 -0.0665
   28PVA    H73 4712   0.511   1.246   2.539 -1.7557 -1.0205  3.0812
   28PVA    H74 4713   0.673   1.285   2.473  1.8474  1.8054  2.5298
   28PVA    C38 4714   0.646   1.072   2.514  0.5377  0.6097  0.4255
   28PVA    H75 4715   0.755   1.063   2.519  0.6170  2.0763  1.9726
   28PVA    O13 4716   0.585   0.981   2.600  0.6434 -0.4299  0.2192
   28PVA    H76 4717   0.503   1.032   2.612  1.6748  1.4042 -0.1045
   28PVA    C39 4718   0.594   1.036   2.368 -0.0099  0.2800  0.1962
   28PVA    H77 4719   0.678   1.037   2.297 -0.0235 -1.6470  0.0976
   28PVA    H78 4720   0.528   1.119   2.339  0.1881 -0.9908 -4.8342
   28PVA    C40 4721   0.507   0.905   2.346 -0.3421 -0.1496  0.5704
   28PVA    H79 4722   0.432   0.907   2.426 -2.0909  3.8320 -0.8876
   28PVA    H80 4723   0.445   0.930   2.259  3.5691  4.4215 -1.3803
   28PVA    C41 4724   0.557   0.760   2.303 -0.1737  0.7469  0.4697
   28PVA    H81 4725   0.588   0.710   2.396  3.2364 -0.7850 -1.2813
   28PVA    O14 4726   0.666   0.772   2.208 -0.0961 -0.2451  0.5395
   28PVA    H82 4727   0.652   0.852   2.156  2.6318  0.5377  0.8676
   28PVA    C42 4728   0.445   0.667   2.244  0.1831  0.4362  0.0304
   28PVA    H83 4729   0.350   0.698   2.289  0.5178  0.3034  0.8390
   28PVA    H84 4730   0.423   0.679   2.137 -1.3456  2.5748  0.5126
   28PVA    C43 4731   0.449   0.516   2.274  0.2567 -0.8590 -0.0206
   28PVA    H85 4732   0.550   0.472   2.276  1.2749  1.0699 -2.6217
   28PVA    H86 4733   0.415   0.522   2.378  1.2656 -0.9190  0.3260
   28PVA    C44 4734   0.356   0.429   2.187 -0.0787  0.0269  1.0878
   28PVA    H87 4735   0.272   0.470   2.244 -2.6464 -0.8742 -1.7661
   28PVA    O15 4736   0.358   0.476   2.051 -0.0644  0.2175  0.2730
   28PVA    H88 4737   0.298   0.552   2.057  1.2985  1.2394  1.7456
   28PVA    C45 4738   0.371   0.267   2.210  0.4249 -0.9662  0.0952
   28PVA    H89 4739   0.477   0.242   2.194  1.8621  3.4887  0.9530
   28PVA    H90 4740   0.367   0.259   2.319 -4.4450  4.9840  0.9147
   28PVA    C46 4741   0.277   0.174   2.135 -0.0899  0.5378  1.5482
   28PVA    H91 4742   0.173   0.186   2.166  0.9019  4.6031  4.0805
   28PVA    H92 4743   0.293   0.201   2.030 -4.0290 -2.1591  0.0455
   28PVA    C47 4744   0.318   0.028   2.135  0.2289 -0.5381 -0.4353
   28PVA    H93 4745   0.414   0.039   2.083  0.1017  0.5097 -0.4552
   28PVA    O16 4746   0.323   7.650   2.260 -0.6926  0.2693 -0.3257
   28PVA    H94 4747   0.322   7.555   2.239  2.2783  0.7061 -3.2074
   28PVA    C48 4748   0.221   7.622   2.056 -1.4237  0.3015 -0.7064
   28PVA    H95 4749   0.127   7.618   2.112  0.0863 -0.0809  2.0320
   28PVA    H96 4750   0.207   7.677   1.963 -2.1408  0.0060 -0.7742
   28PVA    C49 4751   0.271   7.477   2.007  0.5103  0.5931  0.9694
   28PVA    H97 4752   0.336   7.494   1.921  0.1442 -1.7857  0.1354
   28PVA    H98 4753   0.196   7.435   1.938  1.6596  0.0653  0.0130
   28PVA    C50 4754   0.348   7.369   2.096  0.0300  0.3257 -0.6720
   28PVA    H99 4755   0.451   7.401   2.074 -0.4577  3.7498  1.2589
   28PVA    O17 4756   0.315   7.373   2.230 -0.6384 -0.4018  0.3085
   28PVA   H100 4757   0.218   7.376   2.224 -0.5380 -0.0941 -1.6209
   28PVA    C51 4758   0.325   7.216   2.047  0.3141 -0.6793 -0.8596
   28PVA   H101 4759   0.217   7.206   2.027 -0.1075  2.9308 -0.9910
   28PVA   H102 4760   0.377   7.197   1.952 -1.3909 -1.6227 -1.6500
   29PVA     C1 4761   0.146   7.025   0.535  0.1355  1.1300 -0.3672
   29PVA     H1 4762   0.171   6.919   0.541 -1.1066  0.5218 -3.7044
   29PVA     H2 4763   0.053   7.035   0.478 -1.8915 -0.8023  2.4165
   29PVA     C2 4764   0.256   7.117   0.468  0.1315  0.4060  0.1460
   29PVA     H3 4765   0.316   7.148   0.554 -0.9011  3.2127 -0.0243
   29PVA     O1 4766   0.188   7.228   0.413 -1.1614 -0.3526  0.0973
   29PVA     H4 4767   0.147   7.269   0.491  1.6176  1.1454  0.8736
   29PVA     C3 4768   0.352   7.055   0.360  0.4744 -0.2927 -0.8237
   29PVA     H5 4769   0.292   7.053   0.268 -0.5910 -0.5280 -0.1527
   29PVA     H6 4770   0.382   6.950   0.375  1.1493  0.2478  2.2442
   29PVA     C4 4771   0.482   7.144   0.329 -1.3674  0.5938  0.8137
   29PVA     H7 4772   0.471   7.249   0.298 -2.2838 -0.1176 -1.5319
   29PVA     H8 4773   0.543   7.144   0.420 -1.5520  0.8886  0.9370
   29PVA     C5 4774   0.567   7.074   0.212 -0.9104  1.4777 -0.0713
   29PVA     H9 4775   0.533   6.970   0.219 -4.3166  2.4138 -1.1337
   29PVA     O2 4776   0.522   7.130   0.089 -0.1893 -0.0529 -0.3288
   29PVA    H10 4777   0.535   7.070   0.014  4.2368  3.0538 -2.5108
   29PVA     C6 4778   0.726   7.072   0.208 -0.6746 -0.9136 -1.3146
   29PVA    H11 4779   0.759   7.169   0.248  1.1968 -1.7616 -0.7114
   29PVA    H12 4780   0.742   6.989   0.278  0.8491 -1.9331 -2.7959
   29PVA     C7 4781   0.793   7.030   0.077  0.6697  0.9906 -0.7694
   29PVA    H13 4782   0.757   7.094   8.092  2.1777  1.0289 -1.4497
   29PVA    H14 4783   0.757   6.933   0.041 -4.9442  3.4662 -2.9455
   29PVA     C8 4784   0.941   7.040   0.104  0.4163 -0.0442 -0.2115
   29PVA    H15 4785   0.966   7.134   0.155 -0.0086 -0.6289  1.1194
   29PVA     O3 4786   0.977   6.944   0.211  0.0947  0.3854  0.2312
   29PVA    H16 4787   1.068   6.913   0.199  0.0091  0.1047  0.2964
   29PVA     C9 4788   1.017   7.016   8.069 -0.4100 -0.2476  0.6171
   29PVA    H17 4789   0.980   7.087   7.994  1.0122 -0.4305 -0.2868
   29PVA    H18 4790   1.008   6.914   8.030  0.2120 -0.2080  0.3682
   29PVA    C10 4791   1.169   7.044   8.090  0.5040 -1.6415  0.2466
   29PVA    H19 4792   1.212   7.116   0.063  1.5885  2.0397 -3.7359
   29PVA    H20 4793   1.209   6.955   0.043  3.5331 -0.2565  0.5038
   29PVA    C11 4794   1.259   7.061   7.959  0.2392 -0.4132  0.4360
   29PVA    H21 4795   1.199   7.114   7.884  4.5891 -1.6980 -4.4670
   29PVA     O4 4796   1.284   6.940   7.902  0.1824 -0.1177 -0.4515
   29PVA    H22 4797   1.201   6.890   7.895  0.0494  0.2775 -1.9622
   29PVA    C12 4798   1.399   7.134   7.992 -0.0538 -0.2338  0.1274
   29PVA    H23 4799   1.427   7.130   0.000 -0.8974  2.1597  0.5010
   29PVA    H24 4800   1.361   7.236   7.982 -2.2620 -1.0975 -0.8547
   29PVA    C13 4801   1.544   7.130   7.914  0.2331  0.5511 -1.3583
   29PVA    H25 4802   1.614   7.068   7.973 -1.5352  0.3343  0.6369
   29PVA    H26 4803   1.527   7.068   7.825 -0.8127 -4.3016  1.8265
   29PVA    C14 4804   1.613   7.263   7.876 -1.0787  0.2754  0.1219
   29PVA    H27 4805   1.546   7.347   7.854  0.2236  1.4749  0.5804
   29PVA     O5 4806   1.686   7.305   7.995 -0.1120  0.1373  0.0368
   29PVA    H28 4807   1.769   7.344   7.961 -0.4829 -2.6478 -5.0154
   29PVA    C15 4808   1.710   7.266   7.749  0.1009  0.3308  0.0653
   29PVA    H29 4809   1.668   7.349   7.692  1.9392  1.9093  0.8892
   29PVA    H30 4810   1.696   7.176   7.688  1.7895  0.1487 -0.1234
   29PVA    C16 4811   1.860   7.271   7.762 -0.5917 -0.2407 -0.3015
   29PVA    H31 4812   1.875   7.352   7.834  1.3823 -0.3328 -0.5754
   29PVA    H32 4813   1.898   7.186   7.820  0.9144  2.0977  2.3891
   29PVA    C17 4814   1.952   7.298   7.638  0.5156  0.2115  0.2785
   29PVA    H33 4815   2.030   7.361   7.683  1.4133 -2.2220  2.4020
   29PVA     O6 4816   1.891   7.380   7.550  0.0593 -0.2489  0.4965
   29PVA    H34 4817   1.835   7.324   7.493  0.1250  2.5706 -2.6524
   29PVA    C18 4818   2.018   7.171   7.579 -0.3184  0.2073 -0.2429
   29PVA    H35 4819   2.019   7.100   7.663 -0.0151 -3.3053 -3.0239
   29PVA    H36 4820   1.944   7.119   7.518  1.2720  1.4877 -3.5070
   29PVA    C19 4821   2.163   7.192   7.524 -0.1463 -0.4840  0.6263
   29PVA    H37 4822   2.224   7.262   7.582 -1.1742  3.8422 -3.0048
   29PVA    H38 4823   2.144   7.248   7.431 -1.9324 -0.1183  1.1916
   29PVA    C20 4824   2.241   7.057   7.498 -0.4855 -0.4778 -0.2301
   29PVA    H39 4825   2.176   7.013   7.422  1.4531 -1.4421 -1.4228
   29PVA     O7 4826   2.244   6.994   7.631 -0.4242  0.5535  0.2466
   29PVA    H40 4827   2.334   7.010   7.663  1.4710 -3.5784 -2.2928
   29PVA    C21 4828   2.385   7.058   7.447 -0.2414 -0.9795  0.1589
   29PVA    H41 4829   2.363   7.082   7.343  0.8772  1.2676  0.3933
   29PVA    H42 4830   2.413   7.156   7.487 -2.7185 -1.4236  3.4770
   29PVA    C22 4831   2.489   6.958   7.474  0.5254  0.5793  1.7023
   29PVA    H43 4832   2.449   6.858   7.454 -0.6565  1.0226  1.7570
   29PVA    H44 4833   2.517   6.958   7.580  0.7984  4.1237  1.7515
   29PVA    C23 4834   2.629   7.012   7.412  0.6777  0.0939  1.0790
   29PVA    H45 4835   2.666   7.108   7.452  3.2451  2.2240 -5.2331
   29PVA     O8 4836   2.617   7.035   7.280 -0.6106 -0.7207  0.3597
   29PVA    H46 4837   2.527   7.010   7.253 -0.7716  1.4094 -1.4191
   29PVA    C24 4838   2.748   6.921   7.435 -0.7891 -0.3030  0.4413
   29PVA    H47 4839   2.808   6.933   7.526 -0.2965 -4.0091  0.7554
   29PVA    H48 4840   2.705   6.824   7.463  1.8722 -1.8841 -0.6042
   29PVA    C25 4841   2.850   6.903   7.314 -0.6681 -0.2208  0.2757
   29PVA    H49 4842   2.894   6.996   7.278 -3.2920  0.7907 -0.5462
   29PVA    H50 4843   2.786   6.886   7.227  0.6775  1.0953 -1.0180
   29PVA    C26 4844   2.968   6.814   7.308  0.2166 -0.2886  0.6119
   29PVA    H51 4845   2.918   6.720   7.282  0.8297 -0.3556 -0.3777
   29PVA     O9 4846   3.041   6.785   7.432  0.1043  0.2789  1.5936
   29PVA    H52 4847   3.060   6.692   7.415 -5.0110 -0.7594 -0.4415
   29PVA    C27 4848   3.066   6.846   7.189  0.0473  0.1064 -0.3841
   29PVA    H53 4849   3.102   6.950   7.194 -0.0078  0.1469 -0.8122
   29PVA    H54 4850   3.154   6.794   7.231 -1.4946  0.1073  3.2693
   29PVA    C28 4851   3.026   6.790   7.045 -0.4691  0.8287  0.5623
   29PVA    H55 4852   2.933   6.846   7.031  0.2805  1.8845 -0.5174
   29PVA    H56 4853   3.000   6.691   7.082 -3.7533  1.7930  1.1182
   29PVA    C29 4854   3.146   6.795   6.941  0.4898 -0.7907  0.2172
   29PVA    H57 4855   3.216   6.726   6.990 -1.9154 -1.3606  3.1522
   29PVA    O10 4856   3.088   6.729   6.829 -0.4885  0.5078  0.6176
   29PVA    H58 4857   3.118   6.764   6.743 -0.5485  0.3436  0.5307
   29PVA    C30 4858   3.207   6.941   6.918 -0.7261 -0.4150 -0.0156
   29PVA    H59 4859   3.132   7.009   6.876 -1.5119  0.8952  3.2201
   29PVA    H60 4860   3.217   7.014   6.999  0.7496 -1.6001  0.9209
   29PVA    C31 4861   3.337   6.934   6.818 -0.0910  0.5299 -0.3396
   29PVA    H61 4862   3.320   6.892   6.718  1.4132  2.6974 -1.6037
   29PVA    H62 4863   3.419   6.875   6.861  0.5629  0.6045 -1.4257
   29PVA    C32 4864   3.407   7.073   6.791  0.0753  0.3453 -0.4564
   29PVA    H63 4865   3.398   7.124   6.888 -0.9789 -1.2208  0.3091
   29PVA    O11 4866   3.362   7.143   6.676  0.5979  0.4371 -0.0068
   29PVA    H64 4867   3.375   7.095   6.593 -2.0173 -1.2707  0.4292
   29PVA    C33 4868   3.562   7.055   6.762 -1.3898 -0.5902 -0.0871
   29PVA    H65 4869   3.589   6.961   6.712  0.1774 -0.9584  1.3666
   29PVA    H66 4870   3.609   7.045   6.860 -3.1238 -1.6249  0.7011
   29PVA    C34 4871   3.633   7.163   6.681  0.2242 -0.5296  0.3547
   29PVA    H67 4872   3.736   7.131   6.666 -0.1638 -1.4997 -0.3076
   29PVA    H68 4873   3.583   7.173   6.584 -1.5779  2.9525  1.4447
   29PVA    C35 4874   3.634   7.307   6.747  0.1805 -0.7332  0.6798
   29PVA    H69 4875   3.535   7.351   6.767  1.7094  4.6670 -1.5994
   29PVA    O12 4876   3.703   7.318   6.856  0.2938 -0.4387  0.2218
   29PVA    H70 4877   3.647   7.380   6.905 -1.4744 -0.5781 -1.4675
   29PVA    C36 4878   3.699   7.402   6.647 -0.4470 -1.7124  1.0401
   29PVA    H71 4879   3.808   7.402   6.661 -0.0418  1.6538 -1.0656
   29PVA    H72 4880   3.688   7.350   6.552 -4.2007 -1.1395  1.0228
   29PVA    C37 4881   3.633   7.547   6.643 -0.2474 -0.7878 -0.0486
   29PVA    H73 4882   3.662   7.595   6.737  1.5134  0.2894 -1.0722
   29PVA    H74 4883   3.524   7.539   6.635 -0.4783 -3.4339  3.4606
   29PVA    C38 4884   3.668   7.643   6.529  0.1339  0.1686  0.3630
   29PVA    H75 4885   3.759   7.604   6.483 -1.1761  2.2883 -4.6063
   29PVA    O13 4886   3.676   0.095   6.579 -0.1444  0.0713  0.2635
   29PVA    H76 4887   3.741   0.059   6.642  0.4493  1.7725  0.6592
   29PVA    C39 4888   3.550   7.637   6.432 -0.5073  0.5817  1.0273
   29PVA    H77 4889   3.462   0.009   6.462 -2.2158 -2.2860  1.7927
   29PVA    H78 4890   3.527   7.532   6.408 -2.5185  1.5076 -1.5466
   29PVA    C40 4891   3.583   0.016   6.293 -0.0740  0.4538 -0.1343
   29PVA    H79 4892   3.592   0.125   6.297 -0.6306  0.6133 -2.2285
   29PVA    H80 4893   3.677   7.659   6.255  0.7369  2.0392  0.0435
   29PVA    C41 4894   3.477   7.674   6.183 -0.2160  0.2636  0.3155
   29PVA    H81 4895   3.404   7.594   6.201 -1.8738  1.4176 -0.9269
   29PVA    O14 4896   3.397   0.109   6.161  0.0381 -0.0368  0.1144
   29PVA    H82 4897   3.307   0.072   6.155 -0.2239  0.2125  1.9752
   29PVA    C42 4898   3.540   7.636   6.045  0.0783 -0.8881 -0.2948
   29PVA    H83 4899   3.580   0.043   6.002 -1.1408 -0.5270 -0.7143
   29PVA    H84 4900   3.627   7.572   6.064 -0.6940 -1.4311  1.6013
   29PVA    C43 4901   3.441   7.559   5.959 -0.2925  0.8948  1.0032
   29PVA    H85 4902   3.448   7.451   5.980 -0.3023  0.3547 -1.5011
   29PVA    H86 4903   3.339   7.598   5.968 -1.4046 -1.8002  0.9801
   29PVA    C44 4904   3.476   7.570   5.811  0.4148  0.2924  1.9498
   29PVA    H87 4905   3.479   7.674   5.775 -0.1714 -0.5867 -0.9697
   29PVA    O15 4906   3.359   7.518   5.737  0.1292 -0.5633 -1.7468
   29PVA    H88 4907   3.362   7.489   5.645  0.7543  0.4703 -2.0722
   29PVA    C45 4908   3.595   7.493   5.746 -0.6223 -1.2689 -0.6123
   29PVA    H89 4909   3.574   7.386   5.758 -1.9712 -0.8732  1.0476
   29PVA    H90 4910   3.673   7.509   5.821 -0.0647 -3.8216 -0.5578
   29PVA    C46 4911   3.653   7.533   5.610 -0.2189  0.4737 -0.3488
   29PVA    H91 4912   3.588   7.487   5.534  0.1299 -0.3939 -0.1342
   29PVA    H92 4913   3.653   7.642   5.595  0.8033  0.5237 -0.0325
   29PVA    C47 4914   3.798   7.486   5.577 -0.2189  0.5848 -0.3190
   29PVA    H93 4915   3.859   7.576   5.562 -0.0135  0.2167 -1.8950
   29PVA    O16 4916   3.854   7.397   5.677  0.0056 -0.3248  0.6137
   29PVA    H94 4917   3.799   7.317   5.666  0.3308 -0.2131 -2.9440
   29PVA    C48 4918   3.835   7.403   5.442  0.1835 -0.2059 -0.5735
   29PVA    H95 4919   3.933   7.355   5.450  0.2680 -0.2634 -1.7193
   29PVA    H96 4920   3.844   7.491   5.377 -1.8748  0.7703  0.3476
   29PVA    C49 4921   3.708   7.320   5.399  0.1293 -0.1541 -0.3600
   29PVA    H97 4922   3.651   7.294   5.489 -2.4161 -2.0120 -2.3974
   29PVA    H98 4923   3.655   7.384   5.327 -1.2404  2.1254  2.4241
   29PVA    C50 4924   3.757   7.192   5.323 -0.4413  0.1017  0.4054
   29PVA    H99 4925   3.856   7.174   5.366 -0.9741  2.2079  2.7518
   29PVA    O17 4926   3.772   7.213   5.183  0.1745  0.0385  0.0580
   29PVA   H100 4927   3.838   7.277   5.151 -0.1194 -2.0122 -5.8441
   29PVA    C51 4928   3.673   7.069   5.337 -0.3920  0.2216 -0.1045
   29PVA   H101 4929   3.682   7.021   5.435  2.0905 -0.0113 -0.3940
   29PVA   H102 4930   3.568   7.101   5.338 -0.5403 -0.2218 -0.7662
   30PVA     C1 4931   7.591   6.600   1.660 -0.3764 -0.9011 -1.0082
   30PVA     H1 4932   7.660   6.582   1.577  0.5665 -2.2823  0.0355
   30PVA     H2 4933   7.547   6.697   1.632 -0.1143 -0.9555 -1.6195
   30PVA     C2 4934   7.460   6.515   1.653 -0.5277 -0.6828 -0.4926
   30PVA     H3 4935   7.426   6.488   1.754 -0.5324 -3.6613 -1.2146
   30PVA     O1 4936   7.368   6.589   1.569  1.4774  0.6126  0.1541
   30PVA     H4 4937   7.400   6.602   1.478 -2.2618 -2.4363 -1.9482
   30PVA     C3 4938   7.481   6.371   1.600  0.9148 -0.0023 -0.0095
   30PVA     H5 4939   7.542   6.317   1.674  1.2195  0.4808  0.0937
   30PVA     H6 4940   7.535   6.367   1.505  2.3886 -1.6768  0.8412
   30PVA     C4 4941   7.345   6.287   1.578  0.2734 -0.1226 -0.8512
   30PVA     H7 4942   7.385   6.186   1.561  0.6954  0.1224 -1.3579
   30PVA     H8 4943   7.295   6.265   1.673  2.0557 -1.9447 -0.2525
   30PVA     C5 4944   7.240   6.302   1.459 -0.1446 -1.0580  0.8958
   30PVA     H9 4945   7.199   6.402   1.477 -0.0875 -1.2743  2.3550
   30PVA     O2 4946   7.300   6.269   1.326 -0.3532  0.4357 -0.0058
   30PVA    H10 4947   7.386   6.223   1.334  0.3799  1.0002 -3.1106
   30PVA     C6 4948   7.126   6.203   1.473  0.0330 -0.6349 -0.0753
   30PVA    H11 4949   7.107   6.196   1.581  0.1832 -0.7819 -0.0579
   30PVA    H12 4950   7.146   6.106   1.426  3.3380  0.5023 -1.3196
   30PVA     C7 4951   7.001   6.256   1.391 -0.1357  1.0250  0.2847
   30PVA    H13 4952   6.961   6.329   1.462 -0.3469  2.3017 -1.0988
   30PVA    H14 4953   7.036   6.302   1.298 -0.8341 -3.0333 -2.2446
   30PVA     C8 4954   6.897   6.151   1.345  0.1633 -0.1649  0.4268
   30PVA    H15 4955   6.871   6.087   1.430 -0.9741 -0.4400 -0.1135
   30PVA     O3 4956   6.941   6.070   1.242 -0.3507  0.6109  0.3617
   30PVA    H16 4957   6.927   5.979   1.273  1.0814 -0.1995 -1.2558
   30PVA     C9 4958   6.761   6.222   1.304  0.7313  1.1077  1.1047
   30PVA    H17 4959   6.781   6.316   1.251 -0.7240  0.5769 -0.4922
   30PVA    H18 4960   6.710   6.257   1.395  4.4258  1.2319  3.3361
   30PVA    C10 4961   6.674   6.134   1.213  0.3603  0.1511 -0.1661
   30PVA    H19 4962   6.707   6.122   1.109 -0.6908 -1.3767 -0.3607
   30PVA    H20 4963   6.664   6.038   1.266 -0.4918  0.4465  0.2226
   30PVA    C11 4964   6.522   6.172   1.203 -1.4678  0.2671 -0.3910
   30PVA    H21 4965   6.485   6.185   1.305 -3.0632 -0.6842 -0.8217
   30PVA     O4 4966   6.519   6.289   1.126  0.4347  0.7433 -0.5690
   30PVA    H22 4967   6.601   6.341   1.138  1.2219 -0.7436  0.8733
   30PVA    C12 4968   6.411   6.070   1.162 -0.7833 -0.5822  0.0848
   30PVA    H23 4969   6.313   6.089   1.208 -0.6098 -0.1012  0.2668
   30PVA    H24 4970   6.452   5.975   1.198 -0.8396  0.1367  2.1812
   30PVA    C13 4971   6.402   6.039   1.012  0.5520  0.1671  0.0029
   30PVA    H25 4972   6.451   6.116   0.951 -0.0541  0.6465  0.1166
   30PVA    H26 4973   6.456   5.943   1.005 -1.6922 -1.0426 -2.5693
   30PVA    C14 4974   6.258   6.025   0.953 -0.2524  0.0479  1.2100
   30PVA    H27 4975   6.202   6.114   0.984  1.8762  2.7830 -2.0975
   30PVA     O5 4976   6.221   5.915   1.035  0.8196 -0.0586 -0.0461
   30PVA    H28 4977   6.151   5.943   1.097  1.2111  2.0424 -0.4870
   30PVA    C15 4978   6.236   5.995   0.799 -0.5342 -0.0878  0.5799
   30PVA    H29 4979   6.277   5.893   0.789  1.7696  0.7921  0.4751
   30PVA    H30 4980   6.310   6.061   0.753 -1.6480  0.8283  0.0670
   30PVA    C16 4981   6.096   6.004   0.719  0.1488  0.3071  1.2061
   30PVA    H31 4982   6.025   5.937   0.770  0.1223 -0.5607  0.0743
   30PVA    H32 4983   6.066   6.109   0.730  0.3698  0.2832  2.2030
   30PVA    C17 4984   6.111   5.993   0.570 -1.7862 -0.7810  0.2041
   30PVA    H33 4985   6.158   6.090   0.550 -3.4500 -0.1973 -1.2492
   30PVA     O6 4986   6.201   5.896   0.526 -0.6373  0.6209 -0.0555
   30PVA    H34 4987   6.141   5.821   0.537 -0.5645  0.6429  0.5417
   30PVA    C18 4988   5.991   5.967   0.483 -0.3585  1.7341  0.1015
   30PVA    H35 4989   5.930   5.886   0.524 -0.5702  0.7791 -1.9748
   30PVA    H36 4990   5.931   6.055   0.509 -0.3923  1.8764 -0.4482
   30PVA    C19 4991   6.037   5.949   0.331  0.3528  0.3446  0.2045
   30PVA    H37 4992   6.104   5.864   0.309  0.1751 -0.0977  1.3236
   30PVA    H38 4993   6.097   6.040   0.316  1.3008  0.4656  3.9145
   30PVA    C20 4994   5.921   5.944   0.214  0.7251 -0.8392  0.3818
   30PVA    H39 4995   5.890   5.839   0.202 -3.3603  0.2582 -0.0792
   30PVA     O7 4996   5.802   6.011   0.263  0.7028  0.4312 -0.8237
   30PVA    H40 4997   5.752   6.069   0.203  3.1557  2.3104 -1.2200
   30PVA    C21 4998   5.955   5.990   0.066  0.3095  0.6346  0.1057
   30PVA    H41 4999   6.039   5.926   0.036 -1.0085 -3.5522  4.1926
   30PVA    H42 5000   5.986   6.095   0.072  5.2852 -0.6113  0.5737
   30PVA    C22 5001   5.845   5.960   8.055  0.2105  0.1370  1.3420
   30PVA    H43 5002   5.841   5.850   8.046 -2.4736  0.3154 -0.5933
   30PVA    H44 5003   5.748   6.005   8.078  1.4474  1.1978  5.5568
   30PVA    C23 5004   5.896   5.987   7.911  0.4227  0.8661  0.1439
   30PVA    H45 5005   6.005   5.974   7.923  0.9902  3.1957 -1.6588
   30PVA     O8 5006   5.888   6.138   7.883 -1.3594  0.1317  0.0458
   30PVA    H46 5007   5.887   6.165   7.977 -0.8820  0.2218  0.0309
   30PVA    C24 5008   5.834   5.905   7.792 -0.0565 -0.2533  0.7267
   30PVA    H47 5009   5.924   5.906   7.729  2.1183 -0.6044  3.5937
   30PVA    H48 5010   5.806   5.817   7.852 -1.0353 -1.5438 -1.4919
   30PVA    C25 5011   5.698   5.964   7.736 -0.5181  0.1551 -0.7648
   30PVA    H49 5012   5.643   6.006   7.822  2.7306  2.6123  0.3416
   30PVA    H50 5013   5.731   6.040   7.665  2.4056  2.3537  2.5858
   30PVA    C26 5014   5.620   5.843   7.677  0.3143  0.7502  0.4499
   30PVA    H51 5015   5.696   5.774   7.638  0.1118  0.3529  0.7495
   30PVA     O9 5016   5.544   5.780   7.774 -0.2893 -1.1476 -0.4539
   30PVA    H52 5017   5.487   5.732   7.711 -1.1685  1.4916 -1.8001
   30PVA    C27 5018   5.540   5.890   7.552 -0.8247  0.4287 -0.7430
   30PVA    H53 5019   5.609   5.910   7.470 -4.3325 -1.2947 -4.4851
   30PVA    H54 5020   5.495   5.987   7.573 -2.7589 -0.6113  0.2646
   30PVA    C28 5021   5.413   5.815   7.505 -0.2438 -0.6177 -0.3976
   30PVA    H55 5022   5.450   5.712   7.507  2.9532  0.2577  5.0827
   30PVA    H56 5023   5.325   5.845   7.564  1.6216  0.3841  2.0232
   30PVA    C29 5024   5.383   5.852   7.359 -0.2576 -0.6129 -0.8620
   30PVA    H57 5025   5.366   5.960   7.367  3.4831  0.3105 -3.1540
   30PVA    O10 5026   5.491   5.820   7.271  0.8353  1.3343  0.0199
   30PVA    H58 5027   5.505   5.890   7.205  0.0092  1.6444  0.1610
   30PVA    C30 5028   5.268   5.770   7.293  0.9190  0.0635  0.7569
   30PVA    H59 5029   5.174   5.783   7.350  0.2202  2.5497 -0.7818
   30PVA    H60 5030   5.297   5.665   7.287  2.0258  0.3730  0.5823
   30PVA    C31 5031   5.237   5.819   7.143  0.1247  1.3531 -0.4921
   30PVA    H61 5032   5.264   5.926   7.141 -0.1818  1.4363 -2.9039
   30PVA    H62 5033   5.299   5.768   7.069 -1.2649  1.4094 -1.7237
   30PVA    C32 5034   5.082   5.807   7.116 -1.2658 -0.3119 -0.9192
   30PVA    H63 5035   5.020   5.862   7.187  1.1512 -2.2195  2.9914
   30PVA    O11 5036   5.052   5.660   7.123 -0.2562 -0.1515 -0.1873
   30PVA    H64 5037   5.136   5.616   7.146 -0.8182  0.2548  3.1442
   30PVA    C33 5038   5.041   5.864   6.973 -1.3226  0.3455 -0.3108
   30PVA    H65 5039   5.096   5.807   6.898 -2.4003 -3.2316  1.4272
   30PVA    H66 5040   5.075   5.967   6.953 -2.0747  0.8688  0.9919
   30PVA    C34 5041   4.893   5.872   6.929 -0.0952 -0.6813  0.4491
   30PVA    H67 5042   4.827   5.902   7.011 -3.4783  0.9523 -2.6048
   30PVA    H68 5043   4.852   5.774   6.901 -4.5408  0.7327  1.2423
   30PVA    C35 5044   4.878   5.990   6.814  0.0107  0.4531  0.1206
   30PVA    H69 5045   4.963   5.984   6.744  0.0467  4.5940 -0.4173
   30PVA    O12 5046   4.884   6.121   6.889  0.5215 -0.5149  0.7718
   30PVA    H70 5047   4.935   6.180   6.832  5.5195 -1.4236  3.6716
   30PVA    C36 5048   4.740   5.982   6.740 -0.1663 -0.1685  0.3347
   30PVA    H71 5049   4.735   5.880   6.701 -0.2273 -0.8572  2.0716
   30PVA    H72 5050   4.674   5.994   6.827  0.3238  2.9512  0.3984
   30PVA    C37 5051   4.725   6.091   6.623  0.2298  0.0948  0.4071
   30PVA    H73 5052   4.803   6.081   6.547  1.6794  3.7235  1.2234
   30PVA    H74 5053   4.722   6.195   6.658 -1.3873 -0.0419  0.7441
   30PVA    C38 5054   4.582   6.083   6.548  0.5732  0.7895 -0.1542
   30PVA    H75 5055   4.581   6.000   6.476  0.4429  0.3326  0.3712
   30PVA    O13 5056   4.480   6.056   6.649 -0.6071 -0.1258 -1.0138
   30PVA    H76 5057   4.519   5.985   6.703  3.6181  3.8609  1.9810
   30PVA    C39 5058   4.554   6.213   6.474  0.3477 -0.5221  1.4970
   30PVA    H77 5059   4.512   6.286   6.545  0.4087 -0.4760  1.4860
   30PVA    H78 5060   4.646   6.259   6.434 -0.3486 -0.6947 -0.4018
   30PVA    C40 5061   4.457   6.188   6.362 -0.6497  0.7277  0.6007
   30PVA    H79 5062   4.361   6.146   6.395 -0.3476 -0.0179  0.5492
   30PVA    H80 5063   4.504   6.110   6.301 -4.7328 -0.2345 -1.6636
   30PVA    C41 5064   4.432   6.307   6.269  1.0761 -1.1435 -1.0982
   30PVA    H81 5065   4.394   6.393   6.326  1.6172 -1.1410 -0.7395
   30PVA    O14 5066   4.558   6.340   6.208  0.0766  0.4370  0.8771
   30PVA    H82 5067   4.579   6.433   6.228 -1.4318  1.0674 -0.3129
   30PVA    C42 5068   4.317   6.269   6.160  1.0544  0.3305 -0.5856
   30PVA    H83 5069   4.331   6.166   6.124 -0.6996 -0.5524  1.0844
   30PVA    H84 5070   4.226   6.256   6.220  2.0269  0.2961  0.9556
   30PVA    C43 5071   4.296   6.379   6.058 -0.4186 -0.1565  0.1443
   30PVA    H85 5072   4.389   6.417   6.015  0.3465 -2.3686 -0.2923
   30PVA    H86 5073   4.240   6.452   6.119 -6.1120 -3.8903  0.1856
   30PVA    C44 5074   4.203   6.342   5.931  0.0997  1.0299 -0.0695
   30PVA    H87 5075   4.243   6.254   5.878  0.0055  0.7217  0.3676
   30PVA    O15 5076   4.077   6.316   5.987  1.1160  0.5450 -0.2756
   30PVA    H88 5077   4.099   6.229   6.024  2.8311  1.2910  0.6154
   30PVA    C45 5078   4.204   6.444   5.819 -0.1342  0.7487  0.1480
   30PVA    H89 5079   4.160   6.543   5.836 -0.0631  2.2337 -5.9776
   30PVA    H90 5080   4.310   6.473   5.812 -0.1354  0.3594 -3.3789
   30PVA    C46 5081   4.152   6.397   5.681  0.0241 -0.0064  1.2380
   30PVA    H91 5082   4.045   6.375   5.697 -0.8278  3.1759  0.6795
   30PVA    H92 5083   4.218   6.317   5.645 -0.9021  0.2285 -1.1494
   30PVA    C47 5084   4.148   6.528   5.570 -0.5312 -0.2717 -0.0729
   30PVA    H93 5085   4.103   6.611   5.625  0.5898  0.9934 -0.9930
   30PVA    O16 5086   4.271   6.560   5.519 -0.0736  0.1122  0.2948
   30PVA    H94 5087   4.248   6.614   5.441  0.1989  1.9512  1.4401
   30PVA    C48 5088   4.066   6.512   5.431  0.7997  1.1254  0.7358
   30PVA    H95 5089   3.968   6.470   5.458 -0.3047  1.5943 -2.1795
   30PVA    H96 5090   4.105   6.434   5.365  1.8628  3.6360 -1.7667
   30PVA    C49 5091   4.040   6.628   5.335 -0.6247 -0.0522 -1.1214
   30PVA    H97 5092   3.980   6.692   5.401  0.2379 -0.5877  0.2104
   30PVA    H98 5093   4.128   6.694   5.327  1.2255 -2.1227  0.7108
   30PVA    C50 5094   3.977   6.602   5.198 -0.7778 -0.3548 -0.5982
   30PVA    H99 5095   4.018   6.504   5.171 -1.0340 -1.7229  3.3060
   30PVA    O17 5096   4.020   6.697   5.105 -0.0328  0.4945  0.1305
   30PVA   H100 5097   4.106   6.669   5.068  0.9922  3.6173 -0.1459
   30PVA    C51 5098   3.821   6.594   5.219  0.3651  0.0520  0.0470
   30PVA   H101 5099   3.814   6.584   5.328  5.1121  1.1724  0.6872
   30PVA   H102 5100   3.779   6.503   5.175  1.3537  0.4895 -1.9327
   31PVA     C1 5101   7.755   7.001   1.955  0.7799 -0.5469 -0.3174
   31PVA     H1 5102   7.698   7.057   1.880  3.5978  0.6798 -1.6619
   31PVA     H2 5103   0.094   7.020   1.928  1.6141 -0.7208  2.4718
   31PVA     C2 5104   7.711   7.056   2.095 -0.9241 -0.5232 -0.9347
   31PVA     H3 5105   7.618   7.005   2.124 -0.1597  0.4119  4.2396
   31PVA     O1 5106   0.036   7.031   2.195 -1.0575  0.0196  0.1833
   31PVA     H4 5107   0.120   6.998   2.159 -0.4748  1.1196  0.4801
   31PVA     C3 5108   7.688   7.204   2.087 -0.1149 -0.2804  0.6705
   31PVA     H5 5109   7.587   7.221   2.046 -1.1076  0.2313  3.1359
   31PVA     H6 5110   7.744   7.250   2.005  0.3250 -2.4221 -0.3059
   31PVA     C4 5111   7.681   7.275   2.221  0.5101  0.3343 -0.5999
   31PVA     H7 5112   7.574   7.273   2.247  0.2536 -0.6191 -1.6606
   31PVA     H8 5113   7.743   7.245   2.307  3.1553  4.6755 -0.7173
   31PVA     C5 5114   7.731   7.422   2.224 -0.8617  0.3221  0.2518
   31PVA     H9 5115   0.072   7.425   2.199 -1.0504 -1.3347 -0.8857
   31PVA     O2 5116   7.673   7.484   2.108  0.1935  0.0670  0.0513
   31PVA    H10 5117   7.595   7.433   2.080  0.3357 -2.8407  4.1440
   31PVA     C6 5118   7.695   7.495   2.360  1.0183  0.4088  0.5318
   31PVA    H11 5119   7.625   7.578   2.343 -3.2051 -2.8223  0.3859
   31PVA    H12 5120   7.644   7.420   2.421  0.6965 -1.3651 -1.7658
   31PVA     C7 5121   0.054   7.548   2.427 -0.3997  1.3113 -0.8353
   31PVA    H13 5122   0.142   7.511   2.374 -0.7327 -0.8158  0.0214
   31PVA    H14 5123   0.050   7.498   2.524 -3.6923 -1.7134 -2.2892
   31PVA     C8 5124   0.051   0.010   2.455  0.2188 -1.0729  0.7659
   31PVA    H15 5125   7.718   0.028   2.499  0.0258 -0.1303 -0.0210
   31PVA     O3 5126   0.051   0.074   2.329  0.8564 -0.3000 -0.5435
   31PVA    H16 5127   0.116   0.143   2.353 -1.8924  1.3055  3.3780
   31PVA     C9 5128   0.175   0.066   2.532 -1.0965 -0.1770  0.4009
   31PVA    H17 5129   0.267   0.025   2.490 -2.0975 -0.7796 -1.3073
   31PVA    H18 5130   0.170   0.025   2.633 -2.3620 -2.0856 -0.3662
   31PVA    C10 5131   0.180   0.221   2.537  0.5781 -0.8251 -0.3440
   31PVA    H19 5132   0.209   0.246   2.434  0.8746  2.7819  0.4682
   31PVA    H20 5133   0.075   0.253   2.551  1.6360  2.7091  0.6638
   31PVA    C11 5134   0.272   0.274   2.655  1.3651  0.1889 -0.1972
   31PVA    H21 5135   0.208   0.277   2.745  5.0328  2.5693  2.6313
   31PVA     O4 5136   0.368   0.189   2.703 -0.2155 -0.6433  1.0806
   31PVA    H22 5137   0.400   0.235   2.783 -1.2644  2.7217 -0.2619
   31PVA    C12 5138   0.323   0.412   2.637  0.0100 -0.2758  1.1661
   31PVA    H23 5139   0.379   0.451   2.722  2.0003  0.0704 -0.2451
   31PVA    H24 5140   0.398   0.406   2.557 -2.0780  4.6546 -1.5893
   31PVA    C13 5141   0.221   0.520   2.571 -0.1161 -1.2146 -0.2379
   31PVA    H25 5142   0.125   0.503   2.621 -3.2813  3.4466 -3.8123
   31PVA    H26 5143   0.202   0.510   2.464  3.2730  4.8618 -1.8907
   31PVA    C14 5144   0.268   0.669   2.608 -0.0114 -0.4815 -0.1702
   31PVA    H27 5145   0.241   0.690   2.712 -0.6814  1.3921 -0.6864
   31PVA     O5 5146   0.407   0.663   2.597 -0.0931  0.7153 -0.2114
   31PVA    H28 5147   0.429   0.576   2.636 -2.0401  0.9372  1.5366
   31PVA    C15 5148   0.197   0.786   2.542  1.0496  0.0106 -0.6211
   31PVA    H29 5149   0.235   0.808   2.442  0.5784 -0.2840 -0.8685
   31PVA    H30 5150   0.241   0.876   2.588 -2.2459  2.6572 -2.1626
   31PVA    C16 5151   0.047   0.779   2.555  1.1671 -0.2165  0.8079
   31PVA    H31 5152   0.012   0.697   2.491 -2.8329  4.1571 -3.3431
   31PVA    H32 5153   0.016   0.744   2.654 -0.7218  2.3546  1.2279
   31PVA    C17 5154   7.756   0.915   2.502  0.6142  0.3237 -0.3085
   31PVA    H33 5155   0.039   0.935   2.406  3.0253 -1.3476  0.4648
   31PVA     O6 5156   0.025   1.012   2.585  0.4703  0.2084 -0.8605
   31PVA    H34 5157   7.726   1.013   2.658 -1.2709  1.4892 -2.3178
   31PVA    C18 5158   7.603   0.933   2.478 -0.8500 -0.1469 -0.5967
   31PVA    H35 5159   7.575   0.844   2.420  0.3573 -0.2148 -1.1174
   31PVA    H36 5160   7.551   0.932   2.574  1.5811  1.1692  0.8284
   31PVA    C19 5161   7.573   1.063   2.408 -0.1703 -1.0012 -0.3027
   31PVA    H37 5162   7.476   1.055   2.356 -0.1365  1.3136 -0.8268
   31PVA    H38 5163   7.648   1.096   2.335 -1.3686  0.1982 -1.0540
   31PVA    C20 5164   7.520   1.163   2.500  0.2435  0.6027 -0.2017
   31PVA    H39 5165   7.589   1.190   2.580  0.5945  0.9326 -0.6136
   31PVA     O7 5166   7.403   1.117   2.570 -0.8554  0.6186  0.4191
   31PVA    H40 5167   7.436   1.114   2.661  0.2761  4.8323  0.3251
   31PVA    C21 5168   7.492   1.304   2.438  0.7885 -1.1156  0.2630
   31PVA    H41 5169   7.587   1.343   2.400  2.0151 -2.2665  2.0011
   31PVA    H42 5170   7.471   1.369   2.524  0.8250 -0.5898 -0.1152
   31PVA    C22 5171   7.364   1.310   2.343 -0.5902 -0.6676  0.3673
   31PVA    H43 5172   7.395   1.246   2.260  0.4579  1.1820 -0.7341
   31PVA    H44 5173   7.289   1.248   2.394 -0.8219 -1.7592 -1.2113
   31PVA    C23 5174   7.301   1.459   2.317 -0.9768 -0.7563 -0.5475
   31PVA    H45 5175   7.326   1.516   2.407  1.2108 -1.8734 -0.3956
   31PVA     O8 5176   7.160   1.469   2.281  0.2658 -0.4127 -0.0189
   31PVA    H46 5177   7.134   1.384   2.242 -2.6245 -1.1480  3.0675
   31PVA    C24 5178   7.383   1.533   2.202 -0.5235  0.6454 -0.4355
   31PVA    H47 5179   7.482   1.524   2.249 -1.5558 -4.3388  1.4793
   31PVA    H48 5180   7.403   1.461   2.122 -0.2903 -2.7138  2.3924
   31PVA    C25 5181   7.321   1.668   2.156  1.3775 -0.7010  0.5646
   31PVA    H49 5182   7.234   1.640   2.097  2.5322 -1.5464 -0.7905
   31PVA    H50 5183   7.297   1.716   2.252  1.9078 -0.8679  0.7864
   31PVA    C26 5184   7.410   1.761   2.071  0.3248  0.9206  0.2761
   31PVA    H51 5185   7.514   1.762   2.108 -0.0450  2.5802  1.4034
   31PVA     O9 5186   7.417   1.718   1.936  0.6380  0.3206  0.1622
   31PVA    H52 5187   7.503   1.706   1.892  0.1435 -3.6461 -0.1030
   31PVA    C27 5188   7.363   1.910   2.073  0.5212  0.5633 -0.0038
   31PVA    H53 5189   7.342   1.941   2.176 -0.2809  0.3594 -0.0991
   31PVA    H54 5190   7.263   1.906   2.027 -0.0750 -1.7089  1.3215
   31PVA    C28 5191   7.463   2.007   1.996 -0.1357 -0.1910  0.4920
   31PVA    H55 5192   7.549   2.001   2.063 -1.5981 -2.4413  2.3059
   31PVA    H56 5193   7.503   1.970   1.901  1.0612  2.2039 -0.0037
   31PVA    C29 5194   7.401   2.150   1.994  0.1312 -0.0447  0.1697
   31PVA    H57 5195   7.292   2.155   2.001 -0.4039 -2.0042 -3.8766
   31PVA    O10 5196   7.460   2.217   2.097 -0.4438 -0.5331  0.0046
   31PVA    H58 5197   7.404   2.253   2.168  3.3348 -0.8039  3.5410
   31PVA    C30 5198   7.428   2.232   1.856  0.3977  0.2162 -0.2058
   31PVA    H59 5199   7.528   2.277   1.848 -0.0493  1.3476  0.3839
   31PVA    H60 5200   7.429   2.158   1.775  1.3865  0.0581 -0.0618
   31PVA    C31 5201   7.313   2.331   1.829  0.1512 -0.8753 -0.7113
   31PVA    H61 5202   7.297   2.405   1.909 -1.8966 -2.9127  0.8974
   31PVA    H62 5203   7.215   2.282   1.828 -1.2432  1.7236 -1.2197
   31PVA    C32 5204   7.312   2.419   1.695  0.3630 -0.7721 -0.1020
   31PVA    H63 5205   7.288   2.351   1.612  0.9897 -1.3890  0.2073
   31PVA    O11 5206   7.443   2.457   1.674  0.4797 -0.3462  0.0950
   31PVA    H64 5207   7.481   2.490   1.758 -1.5546  0.3026  0.8350
   31PVA    C33 5208   7.231   2.553   1.677 -0.4631 -0.7680 -0.0290
   31PVA    H65 5209   7.253   2.566   1.570  1.0566 -1.1925  0.2047
   31PVA    H66 5210   7.271   2.639   1.731 -2.7525  0.2941  0.1127
   31PVA    C34 5211   7.078   2.545   1.694 -0.4361  0.3854 -0.6942
   31PVA    H67 5212   7.042   2.462   1.632  1.7769  0.4326 -2.1448
   31PVA    H68 5213   7.049   2.538   1.800 -0.0471  3.9164 -0.2368
   31PVA    C35 5214   7.009   2.670   1.675  0.4873  1.3926  0.9721
   31PVA    H69 5215   7.009   2.679   1.565  4.2909  0.5436  0.7502
   31PVA    O12 5216   7.076   2.788   1.715 -0.9203  0.0837 -0.8276
   31PVA    H70 5217   7.037   2.874   1.691 -1.2065  0.7657  1.7675
   31PVA    C36 5218   6.852   2.665   1.709 -0.4803  0.1916  0.1497
   31PVA    H71 5219   6.814   2.761   1.671  1.9434  0.8352 -0.8141
   31PVA    H72 5220   6.802   2.580   1.661 -0.0561 -0.0241  0.0883
   31PVA    C37 5221   6.815   2.666   1.863  0.7491 -0.6989 -0.3558
   31PVA    H73 5222   6.902   2.630   1.920  1.8693  1.9762 -0.2282
   31PVA    H74 5223   6.731   2.595   1.872  0.7576 -0.5569  1.1823
   31PVA    C38 5224   6.787   2.803   1.938 -0.6568 -0.0987 -0.0575
   31PVA    H75 5225   6.691   2.847   1.908  0.0888  2.9680  1.6012
   31PVA    O13 5226   6.902   2.886   1.914  0.1301  0.1727  0.2658
   31PVA    H76 5227   6.981   2.856   1.961 -0.2900  2.8658  3.0385
   31PVA    C39 5228   6.767   2.786   2.096  0.2448 -0.4056 -0.4502
   31PVA    H77 5229   6.694   2.861   2.130  1.1496  0.7817 -1.0438
   31PVA    H78 5230   6.861   2.811   2.148 -0.6463  0.4995  0.7884
   31PVA    C40 5231   6.708   2.648   2.145 -0.7002 -0.9407  0.4600
   31PVA    H79 5232   6.610   2.633   2.098  0.5696 -0.8371 -2.4548
   31PVA    H80 5233   6.774   2.567   2.112  2.3924  0.7400  2.1440
   31PVA    C41 5234   6.689   2.641   2.295 -1.5051 -0.1850 -0.5449
   31PVA    H81 5235   6.786   2.683   2.325 -1.6235  1.6511 -2.4867
   31PVA    O14 5236   6.583   2.728   2.323  0.4216  0.4235  0.3644
   31PVA    H82 5237   6.548   2.703   2.410 -0.6616 -1.0534 -0.4395
   31PVA    C42 5238   6.683   2.490   2.361  0.4218 -0.9067  0.0265
   31PVA    H83 5239   6.777   2.440   2.335  1.0367  0.2117  0.0622
   31PVA    H84 5240   6.687   2.487   2.470  0.5269 -1.4155  0.0141
   31PVA    C43 5241   6.557   2.423   2.317  0.8914  0.4290  1.1824
   31PVA    H85 5242   6.464   2.452   2.368 -1.9299 -4.3907 -0.5276
   31PVA    H86 5243   6.543   2.431   2.209 -0.9988  2.8230  1.5189
   31PVA    C44 5244   6.571   2.268   2.358 -0.3821  0.2520  0.3350
   31PVA    H87 5245   6.639   2.260   2.443  0.6851 -2.2875 -0.6554
   31PVA    O15 5246   6.640   2.194   2.254  0.4015  0.8284 -0.3747
   31PVA    H88 5247   6.592   2.109   2.247  3.6555 -1.2047  0.0349
   31PVA    C45 5248   6.452   2.194   2.404  0.1854  0.5780 -0.2838
   31PVA    H89 5249   6.418   2.238   2.499 -1.9935  0.2808 -0.8704
   31PVA    H90 5250   6.483   2.095   2.440  1.8069  0.6484 -1.4019
   31PVA    C46 5251   6.347   2.199   2.284  0.1051  1.1708 -0.5378
   31PVA    H91 5252   6.327   2.304   2.257 -2.3583  1.7040  2.6396
   31PVA    H92 5253   6.396   2.143   2.204  2.0274  1.4513  0.3725
   31PVA    C47 5254   6.208   2.136   2.302 -0.0012 -0.8433 -0.5045
   31PVA    H93 5255   6.166   2.210   2.371  0.0376  2.5410 -3.7844
   31PVA    O16 5256   6.231   1.999   2.342  0.0556  1.4484  0.5163
   31PVA    H94 5257   6.275   1.961   2.264 -1.3878  1.2732 -0.2442
   31PVA    C48 5258   6.127   2.119   2.164  0.7339 -0.7577  0.1842
   31PVA    H95 5259   6.112   2.225   2.139 -1.7037 -0.6470  1.8074
   31PVA    H96 5260   6.171   2.072   2.075  1.6011  1.3257 -0.5765
   31PVA    C49 5261   5.978   2.076   2.185  0.7742 -0.5136 -0.6525
   31PVA    H97 5262   5.931   2.144   2.257  3.0733  0.5446 -0.0809
   31PVA    H98 5263   5.971   1.977   2.233  1.7001 -1.0306 -1.5244
   31PVA    C50 5264   5.894   2.089   2.050  0.9891 -1.0621 -0.0892
   31PVA    H99 5265   5.840   1.994   2.039  1.4309 -1.8667  3.6367
   31PVA    O17 5266   5.972   2.090   1.926 -0.3393 -0.2072 -0.6918
   31PVA   H100 5267   5.904   2.059   1.863 -2.0407  0.9939  0.4724
   31PVA    C51 5268   5.780   2.192   2.061 -0.0273 -0.4311 -0.4048
   31PVA   H101 5269   5.728   2.210   1.966 -0.2758 -0.3466 -0.2562
   31PVA   H102 5270   5.819   2.288   2.097 -0.1986 -0.6450  0.3625
   32PVA     C1 5271   3.003   6.478   4.788  1.1435 -1.2772 -0.0100
   32PVA     H1 5272   2.986   6.468   4.680 -2.7721  1.9422  0.0624
   32PVA     H2 5273   2.922   6.422   4.836  1.7200 -0.2172  2.3347
   32PVA     C2 5274   3.123   6.419   4.855 -1.0379 -1.5180  0.4416
   32PVA     H3 5275   3.211   6.474   4.817 -2.6569  0.8063 -0.2099
   32PVA     O1 5276   3.118   6.422   4.995 -0.0682  0.0159  0.3283
   32PVA     H4 5277   3.028   6.414   5.032 -1.5059  4.6883 -1.3699
   32PVA     C3 5278   3.138   6.270   4.815  1.0339  0.6414 -0.2803
   32PVA     H5 5279   3.041   6.221   4.828 -0.8135  3.4163 -2.4332
   32PVA     H6 5280   3.219   6.229   4.878  0.6342 -3.5029 -2.1391
   32PVA     C4 5281   3.170   6.242   4.658  0.0830 -0.0949 -0.3100
   32PVA     H7 5282   3.081   6.262   4.597  1.1471  1.5583 -1.3816
   32PVA     H8 5283   3.230   6.324   4.618  1.2429  0.2994  2.0632
   32PVA     C5 5284   3.205   6.091   4.624  0.2803 -0.4499 -0.1445
   32PVA     H9 5285   3.303   6.080   4.673 -1.2846 -4.6282  2.5952
   32PVA     O2 5286   3.119   6.003   4.702 -0.2543 -0.2941 -0.0233
   32PVA    H10 5287   3.179   5.946   4.754  0.0998 -0.5762 -0.7371
   32PVA     C6 5288   3.213   6.062   4.472  0.1496 -0.0854  0.6238
   32PVA    H11 5289   3.115   6.027   4.438  0.5721 -0.6432 -0.0504
   32PVA    H12 5290   3.225   6.163   4.429  0.6574  1.9895  5.0311
   32PVA     C7 5291   3.316   5.961   4.443  0.5905  0.1478  0.7324
   32PVA    H13 5292   3.281   5.901   4.358 -2.5656 -0.5123  2.3173
   32PVA    H14 5293   3.319   5.892   4.528 -0.0253 -1.3857 -0.4539
   32PVA     C8 5294   3.452   6.003   4.433 -0.0288 -0.1252  1.2280
   32PVA    H15 5295   3.447   6.078   4.513  0.7181 -1.2725  2.3952
   32PVA     O3 5296   3.460   6.065   4.314  0.5215 -1.6904  0.6318
   32PVA    H16 5297   3.405   6.029   4.243 -0.7516  1.7077 -0.3196
   32PVA     C9 5298   3.556   5.888   4.451 -0.6367 -1.2185  0.8338
   32PVA    H17 5299   3.501   5.794   4.450  0.8885 -2.1675 -0.7618
   32PVA    H18 5300   3.603   5.887   4.550 -2.1015 -0.8814  1.5441
   32PVA    C10 5301   3.660   5.875   4.332 -0.4861 -0.9211  0.9076
   32PVA    H19 5302   3.610   5.819   4.252 -1.2601 -2.4008  2.3601
   32PVA    H20 5303   3.675   5.966   4.272  1.3201 -2.5425 -1.2983
   32PVA    C11 5304   3.801   5.803   4.366  0.6212 -0.0075 -0.6749
   32PVA    H21 5305   3.785   5.738   4.453 -4.1497 -3.0537 -3.3958
   32PVA     O4 5306   3.904   5.905   4.406  0.6285 -0.0104  0.4454
   32PVA    H22 5307   3.866   5.974   4.464  2.4099 -0.1462  1.8922
   32PVA    C12 5308   3.863   5.729   4.250 -0.9070  0.0676  0.3342
   32PVA    H23 5309   3.800   5.643   4.229 -1.0747  0.1263  0.5911
   32PVA    H24 5310   3.862   5.797   4.164 -2.3349  0.0176  0.2858
   32PVA    C13 5311   4.008   5.686   4.279 -0.4526  0.4041  1.4481
   32PVA    H25 5312   4.009   5.639   4.378  3.4940  1.0848  1.8847
   32PVA    H26 5313   4.073   5.772   4.299  1.4698 -1.3678  3.3337
   32PVA    C14 5314   4.068   5.604   4.151  0.5637 -0.2748 -1.3390
   32PVA    H27 5315   4.046   5.659   4.059  1.2866 -0.6285 -1.7322
   32PVA     O5 5316   3.989   5.481   4.142 -0.6095  0.2354 -0.8967
   32PVA    H28 5317   4.016   5.429   4.220  0.1132  2.4253  0.4043
   32PVA    C15 5318   4.219   5.573   4.176  0.4742 -0.5563 -0.0869
   32PVA    H29 5319   4.226   5.532   4.278  1.4077  1.2262  0.5968
   32PVA    H30 5320   4.276   5.664   4.200  2.2413 -1.6502  0.0580
   32PVA    C16 5321   4.298   5.493   4.072  0.5938 -0.8324 -0.6851
   32PVA    H31 5322   4.253   5.394   4.060 -1.0312 -0.4279  1.4786
   32PVA    H32 5323   4.285   5.530   3.969 -2.8031 -0.1203 -0.1223
   32PVA    C17 5324   4.448   5.489   4.109  1.4400 -0.7903  0.1025
   32PVA    H33 5325   4.492   5.587   4.129  0.4205 -0.0207 -1.3040
   32PVA     O6 5326   4.461   5.420   4.229 -0.6885 -0.2645 -0.2694
   32PVA    H34 5327   4.408   5.446   4.307  1.2723 -0.2749  1.1299
   32PVA    C18 5328   4.524   5.440   3.984  0.0232 -0.4048  0.3805
   32PVA    H35 5329   4.530   5.515   3.905  0.5604 -1.0236 -0.1821
   32PVA    H36 5330   4.622   5.418   4.029  1.6241  0.6452 -2.3333
   32PVA    C19 5331   4.472   5.301   3.924 -1.2195  0.5785 -0.1245
   32PVA    H37 5332   4.412   5.251   4.000 -0.9481  2.0004  1.0709
   32PVA    H38 5333   4.558   5.235   3.906  0.3241  3.2040 -3.7637
   32PVA    C20 5334   4.408   5.300   3.779 -0.6078  1.2788  0.7438
   32PVA    H39 5335   4.303   5.329   3.787 -1.4015 -1.4405  1.1896
   32PVA     O7 5336   4.467   5.400   3.691  0.4132 -1.0122 -0.8480
   32PVA    H40 5337   4.564   5.392   3.690  0.8831  2.7155 -0.2109
   32PVA    C21 5338   4.420   5.165   3.690 -0.6042 -0.6297  0.2294
   32PVA    H41 5339   4.375   5.086   3.752 -0.0317  0.9020  2.7356
   32PVA    H42 5340   4.527   5.140   3.685 -0.4664  0.1969 -2.2308
   32PVA    C22 5341   4.363   5.169   3.543  0.1648  0.3698  0.5038
   32PVA    H43 5342   4.257   5.196   3.543  0.4502  1.7755 -1.9724
   32PVA    H44 5343   4.404   5.245   3.476 -2.5863  1.6221  0.1131
   32PVA    C23 5344   4.352   5.030   3.470 -0.1816  0.1998  0.6544
   32PVA    H45 5345   4.303   5.063   3.377 -4.3979 -4.7596  0.6277
   32PVA     O8 5346   4.476   4.955   3.449  0.3169  0.2754 -0.4089
   32PVA    H46 5347   4.458   4.876   3.396  0.1845  1.9559 -3.0399
   32PVA    C24 5348   4.257   4.938   3.546  0.1608  0.3469 -0.2505
   32PVA    H47 5349   4.166   4.996   3.568  1.7759  3.0627 -0.3296
   32PVA    H48 5350   4.306   4.904   3.638  2.6527  2.3242 -0.7342
   32PVA    C25 5351   4.208   4.810   3.463 -0.2129 -0.7908 -0.4144
   32PVA    H49 5352   4.234   4.821   3.357 -1.4013  0.2722 -0.6220
   32PVA    H50 5353   4.099   4.826   3.463  0.1297  2.3357  0.3936
   32PVA    C26 5354   4.250   4.670   3.523 -0.9529  0.8361 -0.3935
   32PVA    H51 5355   4.205   4.628   3.615  3.1234 -4.1699 -0.2605
   32PVA     O9 5356   4.396   4.658   3.524 -0.4307  0.1434 -0.3794
   32PVA    H52 5357   4.440   4.661   3.438  2.2967 -0.1699  0.8828
   32PVA    C27 5358   4.197   4.569   3.421  0.1436  0.1496 -0.5275
   32PVA    H53 5359   4.252   4.597   3.330  2.0291 -0.1572  0.4572
   32PVA    H54 5360   4.088   4.579   3.416 -0.2869 -3.6007 -2.0357
   32PVA    C28 5361   4.219   4.420   3.453 -0.2092  0.3267 -0.1516
   32PVA    H55 5362   4.317   4.392   3.494  2.1449  0.6137 -4.8889
   32PVA    H56 5363   4.160   4.375   3.534 -0.5310 -2.3968 -1.7470
   32PVA    C29 5364   4.195   4.324   3.333 -0.1915  0.7072  0.6345
   32PVA    H57 5365   4.101   4.351   3.282 -0.8703 -3.9501 -1.1137
   32PVA    O10 5366   4.187   4.196   3.388  0.2911  0.0318 -0.5908
   32PVA    H58 5367   4.222   4.117   3.344 -2.6340 -3.1502  2.1741
   32PVA    C30 5368   4.293   4.314   3.214  0.4318 -0.0300 -0.1314
   32PVA    H59 5369   4.385   4.271   3.255  1.6112  0.8775 -1.6886
   32PVA    H60 5370   4.327   4.416   3.191  0.2164 -0.4018 -2.3790
   32PVA    C31 5371   4.250   4.247   3.086 -0.3957 -0.4389 -0.2192
   32PVA    H61 5372   4.196   4.153   3.105 -1.9022  0.2616 -0.8547
   32PVA    H62 5373   4.192   4.308   3.015 -0.7666  0.1479  0.5594
   32PVA    C32 5374   4.380   4.215   3.010  0.1958  0.9256 -0.5777
   32PVA    H63 5375   4.431   4.312   3.011 -2.1873  2.2779  1.5876
   32PVA    O11 5376   4.462   4.120   3.097  0.4331  0.2413  0.1935
   32PVA    H64 5377   4.407   4.097   3.175  2.6116 -3.7776  0.8457
   32PVA    C33 5378   4.377   4.169   2.858 -0.6608  0.3899 -0.6823
   32PVA    H65 5379   4.353   4.249   2.787  0.9386 -0.5586 -2.3665
   32PVA    H66 5380   4.289   4.105   2.847 -2.2933  2.7901 -2.9447
   32PVA    C34 5381   4.523   4.123   2.817 -0.8919  0.7300 -0.5935
   32PVA    H67 5382   4.604   4.178   2.867 -1.1759  1.7792 -1.2514
   32PVA    H68 5383   4.529   4.021   2.857 -1.8660  0.0974 -1.9826
   32PVA    C35 5384   4.544   4.143   2.667  0.3005  0.1153  0.6475
   32PVA    H69 5385   4.538   4.251   2.650 -2.0993  0.4794  3.0475
   32PVA    O12 5386   4.434   4.066   2.605 -0.6795  0.6613  0.5078
   32PVA    H70 5387   4.382   4.015   2.670 -1.3217  1.3626  0.5573
   32PVA    C36 5388   4.663   4.074   2.591  0.6445 -0.5063  0.7217
   32PVA    H71 5389   4.753   4.122   2.632 -2.3722  1.3704  6.1847
   32PVA    H72 5390   4.646   4.100   2.486  1.9459 -0.0426  0.6104
   32PVA    C37 5391   4.696   3.919   2.611 -0.4859  1.7248 -0.5291
   32PVA    H73 5392   4.625   3.856   2.556  0.0508  0.8042 -0.1898
   32PVA    H74 5393   4.723   3.898   2.715 -0.3415  0.0912 -0.8750
   32PVA    C38 5394   4.829   3.876   2.550 -0.8668  0.5674 -0.1359
   32PVA    H75 5395   4.909   3.931   2.601  0.1022 -0.5915 -0.3517
   32PVA    O13 5396   4.838   3.906   2.410 -0.0887 -0.8688 -0.3665
   32PVA    H76 5397   4.902   3.978   2.398 -0.4974 -0.3821  0.2930
   32PVA    C39 5398   4.857   3.719   2.574  0.5973 -0.3997  1.9556
   32PVA    H77 5399   4.854   3.709   2.684 -0.5287  4.0189  2.5198
   32PVA    H78 5400   4.770   3.666   2.534  1.7327  0.2161 -1.7201
   32PVA    C40 5401   4.986   3.667   2.520  0.0334  1.2177  0.5925
   32PVA    H79 5402   5.059   3.748   2.531  0.5214  0.8322  0.2793
   32PVA    H80 5403   4.954   3.664   2.415 -1.0778  0.7580  0.9282
   32PVA    C41 5404   5.012   3.505   2.547 -0.8847 -0.7113 -0.4752
   32PVA    H81 5405   5.093   3.492   2.620 -3.2638 -2.5469  2.0812
   32PVA    O14 5406   4.907   3.442   2.619  0.1817 -0.3551 -0.7440
   32PVA    H82 5407   4.942   3.441   2.710 -0.8801  0.5230 -0.2922
   32PVA    C42 5408   5.054   3.422   2.425  0.7640  1.0753 -0.6104
   32PVA    H83 5409   4.984   3.434   2.341 -1.7222 -4.1374  0.2754
   32PVA    H84 5410   5.148   3.465   2.388  2.1130  1.2329  2.6925
   32PVA    C43 5411   5.079   3.271   2.454 -0.2587 -0.3610  0.5086
   32PVA    H85 5412   5.151   3.288   2.536 -0.3604  1.0580  0.3314
   32PVA    H86 5413   5.001   3.218   2.509 -0.2218 -0.7735  0.1617
   32PVA    C44 5414   5.148   3.186   2.341 -0.2765 -0.0202  0.5306
   32PVA    H87 5415   5.255   3.211   2.346 -0.3701  0.6658 -0.5328
   32PVA    O15 5416   5.111   3.238   2.212  1.3313 -0.3804  1.0930
   32PVA    H88 5417   5.173   3.313   2.205  1.8896 -0.9126  0.0657
   32PVA    C45 5418   5.109   3.036   2.348  0.0350 -0.5927  0.7492
   32PVA    H89 5419   5.000   3.033   2.337  0.1881 -1.9015 -0.8361
   32PVA    H90 5420   5.125   2.991   2.446  0.9398 -2.2809 -0.1202
   32PVA    C46 5421   5.175   2.947   2.240  0.9197 -0.3493 -0.2813
   32PVA    H91 5422   5.120   2.959   2.146 -1.3473 -2.6395  0.6479
   32PVA    H92 5423   5.279   2.970   2.214  1.0972 -0.9368 -0.0958
   32PVA    C47 5424   5.164   2.791   2.281  0.4688 -1.2541  0.3236
   32PVA    H93 5425   5.233   2.771   2.363  0.6646 -0.9337  0.2386
   32PVA    O16 5426   5.037   2.761   2.333 -0.7882 -1.1043 -1.1425
   32PVA    H94 5427   4.971   2.739   2.265 -0.9712  0.9632 -1.7058
   32PVA    C48 5428   5.216   2.700   2.164  0.5306 -0.3103  0.3557
   32PVA    H95 5429   5.152   2.704   2.075 -1.8941 -2.0365  1.9127
   32PVA    H96 5430   5.311   2.727   2.116 -0.5395 -1.2805 -2.5320
   32PVA    C49 5431   5.213   2.552   2.213 -0.4492  0.2411 -0.9280
   32PVA    H97 5432   5.193   2.550   2.321 -0.4134 -0.4597 -0.9251
   32PVA    H98 5433   5.121   2.505   2.176 -1.4670 -0.7642  2.4893
   32PVA    C50 5434   5.335   2.462   2.180  0.9166 -1.0359 -0.3033
   32PVA    H99 5435   5.412   2.502   2.248  2.0015  0.8734 -2.5219
   32PVA    O17 5436   5.351   2.483   2.038  0.3374  0.4037  0.1821
   32PVA   H100 5437   5.267   2.509   1.997 -0.0886  3.3904  2.5802
   32PVA    C51 5438   5.313   2.313   2.219  0.4458 -0.6223  0.2149
   32PVA   H101 5439   5.214   2.269   2.202  0.4556 -1.7683  2.7231
   32PVA   H102 5440   5.311   2.323   2.328  0.8700 -0.4584  0.2092
   33PVA     C1 5441   2.812   6.908   4.581 -0.1447  0.3219 -1.0147
   33PVA     H1 5442   2.842   7.007   4.546 -0.9243 -0.0044 -2.7203
   33PVA     H2 5443   2.846   6.843   4.500  2.4140  0.6574 -0.2928
   33PVA     C2 5444   2.659   6.916   4.575 -0.9340  0.9787  0.4241
   33PVA     H3 5445   2.618   6.996   4.638 -3.3179  1.4930 -1.5941
   33PVA     O1 5446   2.623   6.787   4.619  0.2874  0.1426 -0.2638
   33PVA     H4 5447   2.533   6.794   4.581  0.0454  0.2893  0.3150
   33PVA     C3 5448   2.605   6.944   4.428 -1.4070  1.1108 -0.0940
   33PVA     H5 5449   2.675   7.021   4.394 -0.2553  0.7418  1.3556
   33PVA     H6 5450   2.608   6.861   4.357 -1.5172  1.2641 -0.2796
   33PVA     C4 5451   2.465   7.017   4.420 -0.9474 -0.0265  0.6329
   33PVA     H7 5452   2.393   6.985   4.496 -0.1179 -2.9450  0.3260
   33PVA     H8 5453   2.498   7.115   4.456  4.2165 -2.2239  2.7959
   33PVA     C5 5454   2.405   7.021   4.271  0.8625  0.2670 -0.1764
   33PVA     H9 5455   2.381   6.915   4.256  2.4112 -0.1684  0.2003
   33PVA     O2 5456   2.502   7.083   4.183  0.2041  0.3051 -0.1569
   33PVA    H10 5457   2.527   7.170   4.218  0.9098 -1.0371  3.0143
   33PVA     C6 5458   2.271   7.088   4.228 -0.3287  0.0809 -0.2370
   33PVA    H11 5459   2.196   7.057   4.302 -2.5984 -0.7957 -2.7422
   33PVA    H12 5460   2.282   7.197   4.235 -0.7276  0.1569 -0.7494
   33PVA     C7 5461   2.215   7.081   4.081 -0.5197  0.2289  1.1119
   33PVA    H13 5462   2.296   7.103   4.010 -0.3956 -1.8034  0.5731
   33PVA    H14 5463   2.186   6.978   4.058  4.4933 -1.0947 -0.6935
   33PVA     C8 5464   2.091   7.175   4.039  0.2575 -1.1542  0.0929
   33PVA    H15 5465   2.018   7.152   4.117  0.5272  0.1895  0.7748
   33PVA     O3 5466   2.130   7.306   4.056 -0.0211 -0.3271 -0.6503
   33PVA    H16 5467   2.225   7.322   4.072  0.7520 -3.3825 -1.5188
   33PVA     C9 5468   2.047   7.166   3.896 -0.3718  0.9909  0.5011
   33PVA    H17 5469   2.024   7.059   3.890  1.7466  0.5451 -3.9792
   33PVA    H18 5470   2.130   7.167   3.824  1.1841  0.1465  2.2154
   33PVA    C10 5471   1.916   7.254   3.857  0.5412  0.4156  0.3691
   33PVA    H19 5472   1.871   7.174   3.797  1.9756  0.3805 -0.7111
   33PVA    H20 5473   1.864   7.277   3.951  1.2495 -2.1145  1.4640
   33PVA    C11 5474   1.921   7.382   3.767 -0.1102 -0.0181 -0.2301
   33PVA    H21 5475   1.943   7.348   3.665  0.6155 -1.9612  0.5389
   33PVA     O4 5476   2.030   7.459   3.809  0.8886 -0.0928 -0.1767
   33PVA    H22 5477   2.068   7.391   3.867  5.0721  1.0045 -1.2598
   33PVA    C12 5478   1.781   7.467   3.782 -0.5259  0.3469  0.9939
   33PVA    H23 5479   1.699   7.394   3.770 -1.3941  1.2110  1.5534
   33PVA    H24 5480   1.762   7.495   3.886  2.1355  0.6913  1.4639
   33PVA    C13 5481   1.767   7.589   3.690 -0.7667 -0.8587  1.1124
   33PVA    H25 5482   1.797   7.572   3.586 -2.3985  2.4224 -0.0543
   33PVA    H26 5483   1.849   7.657   3.718 -1.2889 -0.1717  1.0240
   33PVA    C14 5484   1.638   7.671   3.671  0.2545  0.7061 -1.3556
   33PVA    H27 5485   1.673   0.089   3.687 -0.0710  1.1755 -3.3016
   33PVA     O5 5486   1.547   7.646   3.777 -1.1305  0.7564 -0.2119
   33PVA    H28 5487   1.463   7.629   3.732 -0.3766 -1.1208 -1.0319
   33PVA    C15 5488   1.564   7.662   3.537 -0.9729  0.0669 -0.4027
   33PVA    H29 5489   1.637   0.038   3.482 -1.4292  2.4807  1.4793
   33PVA    H30 5490   1.554   7.558   3.503 -3.3967 -0.5546  1.7974
   33PVA    C16 5491   1.424   0.047   3.525 -0.3784  0.5614  0.4930
   33PVA    H31 5492   1.348   7.683   3.586 -1.3559  4.5553  2.8592
   33PVA    H32 5493   1.413   0.150   3.562 -1.7344  1.1011 -1.2378
   33PVA    C17 5494   1.359   0.028   3.384  0.2137  0.2030  0.5707
   33PVA    H33 5495   1.319   7.611   3.378 -4.5540  1.6750  2.9700
   33PVA     O6 5496   1.450   0.046   3.293 -0.4090  0.3733  0.4376
   33PVA    H34 5497   1.519   0.114   3.307  0.2300 -0.5461  2.0798
   33PVA    C18 5498   1.236   0.121   3.338  0.1932 -0.0336  0.1372
   33PVA    H35 5499   1.186   0.060   3.262  3.7000 -3.1967  0.0533
   33PVA    H36 5500   1.154   0.116   3.411 -0.2228 -1.7268 -0.4074
   33PVA    C19 5501   1.239   0.269   3.291  0.2310  0.3562  1.0561
   33PVA    H37 5502   1.292   0.335   3.361 -0.3792 -0.2148  2.0785
   33PVA    H38 5503   1.297   0.267   3.198  2.6180 -0.8760  2.4893
   33PVA    C20 5504   1.092   0.329   3.256 -0.9195 -0.5877  0.2352
   33PVA    H39 5505   1.042   0.325   3.353 -1.8058 -0.6987 -0.2220
   33PVA     O7 5506   1.037   0.244   3.157  1.0292  0.5141 -0.9017
   33PVA    H40 5507   1.098   0.179   3.118 -0.7364 -1.4070 -0.6316
   33PVA    C21 5508   1.070   0.485   3.213 -0.9779 -0.3582 -0.2668
   33PVA    H41 5509   1.118   0.497   3.115 -1.4036 -1.4274 -0.6150
   33PVA    H42 5510   1.115   0.547   3.292  2.7986 -2.7010 -0.3208
   33PVA    C22 5511   0.928   0.538   3.204 -0.2083  0.4330  0.0345
   33PVA    H43 5512   0.846   0.467   3.191  0.4154 -0.9831  2.9828
   33PVA    H44 5513   0.896   0.559   3.307 -0.0962 -1.2139  0.4341
   33PVA    C23 5514   0.884   0.677   3.128  0.0861 -0.2280 -0.1406
   33PVA    H45 5515   0.877   0.750   3.210 -4.4452  0.9245 -1.2584
   33PVA     O8 5516   0.991   0.708   3.045  0.0556 -0.4070  0.0645
   33PVA    H46 5517   0.995   0.662   2.959 -0.6957  0.0877 -0.2411
   33PVA    C24 5518   0.746   0.688   3.052 -0.4934  0.9178  0.3732
   33PVA    H47 5519   0.774   0.642   2.956 -0.7314  0.5567  0.4738
   33PVA    H48 5520   0.689   0.611   3.106 -3.0097  1.3058 -1.5240
   33PVA    C25 5521   0.671   0.823   3.041 -0.1102 -0.9219  0.2387
   33PVA    H49 5522   0.740   0.901   3.075 -0.8908 -0.0994  0.0059
   33PVA    H50 5523   0.589   0.822   3.115  0.1557  0.8535  0.6125
   33PVA    C26 5524   0.624   0.894   2.900 -0.7385  0.1485  0.2104
   33PVA    H51 5525   0.707   0.958   2.870  1.6178 -2.1754  1.3483
   33PVA     O9 5526   0.611   0.802   2.797  0.8083 -0.9766  0.0165
   33PVA    H52 5527   0.582   0.853   2.720  1.6245  1.3346  1.1542
   33PVA    C27 5528   0.513   0.999   2.923 -0.7506 -0.2564 -0.8685
   33PVA    H53 5529   0.565   1.095   2.908  2.7225 -2.4636 -5.0576
   33PVA    H54 5530   0.473   0.992   3.025  2.9372  3.9679  1.2248
   33PVA    C28 5531   0.387   1.015   2.828 -0.7060 -0.2935 -1.0040
   33PVA    H55 5532   0.375   0.919   2.777  3.1577 -1.9010  0.7082
   33PVA    H56 5533   0.303   1.012   2.898  1.3371  0.3703  1.6232
   33PVA    C29 5534   0.365   1.145   2.739  0.1512  1.2044 -0.1376
   33PVA    H57 5535   0.453   1.210   2.749  1.3153 -0.4489  0.9720
   33PVA    O10 5536   0.347   1.096   2.610  1.2218  0.0116  0.0309
   33PVA    H58 5537   0.256   1.081   2.578  1.3472 -4.6426  1.1179
   33PVA    C30 5538   0.231   1.214   2.767 -0.2832 -1.4816 -0.7648
   33PVA    H59 5539   0.209   1.237   2.871  2.6236 -1.2786 -0.1130
   33PVA    H60 5540   0.153   1.137   2.770 -5.2614  3.0111 -0.1791
   33PVA    C31 5541   0.189   1.329   2.668  2.2186  0.4556 -0.7871
   33PVA    H61 5542   0.126   1.285   2.589 -2.0729  0.6682  2.1680
   33PVA    H62 5543   0.275   1.390   2.637  0.6562  2.8917 -0.5870
   33PVA    C32 5544   0.106   1.449   2.722 -0.4164 -0.3449  0.6274
   33PVA    H63 5545   0.068   1.434   2.824  3.5337  1.2992  2.5475
   33PVA    O11 5546   0.186   1.563   2.743 -0.4490 -0.0873  0.8125
   33PVA    H64 5547   0.221   1.554   2.834  3.4455 -2.2206 -0.6695
   33PVA    C33 5548   7.743   1.489   2.641  1.4685  0.4088 -0.9145
   33PVA    H65 5549   7.674   1.403   2.643  0.6369  1.0324  1.7941
   33PVA    H66 5550   0.006   1.508   2.537  4.8901  2.5317  0.2492
   33PVA    C34 5551   7.667   1.619   2.684 -0.4904  0.6047 -0.2509
   33PVA    H67 5552   7.650   1.629   2.792 -1.4568 -4.3570  0.2837
   33PVA    H68 5553   7.721   1.709   2.656  0.3387 -0.6145 -2.8288
   33PVA    C35 5554   7.530   1.626   2.617 -0.3505 -0.9308 -0.1194
   33PVA    H69 5555   7.543   1.609   2.510 -0.2673  0.2274 -0.3119
   33PVA    O12 5556   7.438   1.552   2.685 -0.5941 -0.0239  0.7985
   33PVA    H70 5557   7.357   1.601   2.662  0.4575  2.3238  1.7598
   33PVA    C36 5558   7.467   1.774   2.638 -0.0485  0.6062  0.5956
   33PVA    H71 5559   7.442   1.794   2.742 -0.2086 -0.4058  0.7622
   33PVA    H72 5560   7.554   1.838   2.620 -1.0800  2.2929  1.3543
   33PVA    C37 5561   7.345   1.817   2.535  0.1370  0.7922  0.6344
   33PVA    H73 5562   7.278   1.732   2.517  1.4377 -0.0920 -0.2403
   33PVA    H74 5563   7.375   1.847   2.434  2.8709 -2.4359  0.2938
   33PVA    C38 5564   7.260   1.934   2.583 -0.3041  0.8199 -0.4385
   33PVA    H75 5565   7.162   1.915   2.536  0.0296  0.0092 -0.8293
   33PVA    O13 5566   7.233   1.927   2.722 -0.1224 -0.0325  0.7701
   33PVA    H76 5567   7.169   1.993   2.755  0.3311 -0.1972  1.9915
   33PVA    C39 5568   7.319   2.072   2.532  0.0461 -1.2286 -0.0939
   33PVA    H77 5569   7.362   2.057   2.432  1.5860 -0.9296  0.4972
   33PVA    H78 5570   7.407   2.106   2.588  0.1894  1.3316 -1.6943
   33PVA    C40 5571   7.219   2.190   2.520 -0.8940  1.0384 -0.5078
   33PVA    H79 5572   7.135   2.171   2.453 -3.7808  0.6776  2.9502
   33PVA    H80 5573   7.175   2.190   2.620  1.1671  2.5922  0.4831
   33PVA    C41 5574   7.277   2.330   2.490  0.4218  0.0239 -0.2300
   33PVA    H81 5575   7.353   2.358   2.564 -0.2054  5.5306 -1.2442
   33PVA    O14 5576   7.337   2.339   2.359  0.2566  0.6138  0.3652
   33PVA    H82 5577   7.379   2.426   2.364 -0.0760  0.7646  0.5709
   33PVA    C42 5578   7.156   2.432   2.508  1.3045 -0.1631  0.4106
   33PVA    H83 5579   7.108   2.389   2.597  0.0299 -0.0026 -0.1786
   33PVA    H84 5580   7.089   2.422   2.421  3.6555  0.3494 -1.5851
   33PVA    C43 5581   7.201   2.576   2.532  0.7913 -0.3043  0.1009
   33PVA    H85 5582   7.287   2.585   2.464  1.3692  0.0749  0.8759
   33PVA    H86 5583   7.229   2.608   2.633  5.5336 -0.7850 -0.8267
   33PVA    C44 5584   7.097   2.685   2.483 -0.6506 -0.3353  0.2596
   33PVA    H87 5585   7.056   2.670   2.382 -0.9207  1.8318  0.0138
   33PVA    O15 5586   6.988   2.673   2.570 -0.3762 -1.0435  0.5059
   33PVA    H88 5587   6.956   2.581   2.573  0.9858 -1.5701 -0.1590
   33PVA    C45 5588   7.153   2.840   2.469  0.6271  0.3648  0.0166
   33PVA    H89 5589   7.123   2.889   2.563 -3.5325 -2.0380  0.1799
   33PVA    H90 5590   7.262   2.831   2.465  0.6276 -1.6709  2.0421
   33PVA    C46 5591   7.074   2.916   2.346  0.2864  1.2079 -0.6107
   33PVA    H91 5592   6.968   2.906   2.370 -0.3774  1.9524 -2.9912
   33PVA    H92 5593   7.079   2.858   2.253 -1.1510  2.5634 -1.5800
   33PVA    C47 5594   7.113   3.063   2.337  0.5456 -0.8397  0.1393
   33PVA    H93 5595   7.223   3.055   2.343  1.0412  1.4305 -3.0209
   33PVA    O16 5596   7.053   3.142   2.432  0.0002  0.2602 -1.0124
   33PVA    H94 5597   6.979   3.175   2.378 -1.5229 -3.0421 -1.1430
   33PVA    C48 5598   7.085   3.140   2.203 -0.1894  0.2936  0.9654
   33PVA    H95 5599   7.113   3.084   2.112  1.7678  1.1656  0.9731
   33PVA    H96 5600   7.149   3.229   2.198 -1.0397  0.8531 -2.1298
   33PVA    C49 5601   6.944   3.214   2.174  0.7319 -0.0941 -0.0962
   33PVA    H97 5602   6.865   3.140   2.156  0.6346  0.5147 -2.5045
   33PVA    H98 5603   6.918   3.267   2.267  3.0062 -0.2970  0.7182
   33PVA    C50 5604   6.942   3.327   2.057 -1.9358 -1.1427 -0.6084
   33PVA    H99 5605   7.032   3.389   2.059 -2.1327 -0.8494  1.0701
   33PVA    O17 5606   6.933   3.253   1.934  0.4992 -0.2059  0.1743
   33PVA   H100 5607   6.890   3.315   1.873  3.5305  2.1516  0.1576
   33PVA    C51 5608   6.835   3.448   2.052  0.7676  0.3861 -0.1266
   33PVA   H101 5609   6.824   3.497   2.149 -1.4286  1.9865 -1.0940
   33PVA   H102 5610   6.740   3.393   2.052  1.0398 -0.1829  2.0637
   34PVA     C1 5611   5.234   1.553   1.510  0.6412 -0.0104 -0.2140
   34PVA     H1 5612   5.166   1.552   1.596  0.4105  1.1358 -0.3609
   34PVA     H2 5613   5.191   1.628   1.442  0.8662 -0.8615 -1.3220
   34PVA     C2 5614   5.228   1.410   1.447  0.7382 -1.5101 -1.8320
   34PVA     H3 5615   5.267   1.331   1.512  0.5750  0.4489  0.8424
   34PVA     O1 5616   5.286   1.404   1.319 -0.6220 -0.6302 -0.8785
   34PVA     H4 5617   5.298   1.309   1.301 -0.1621 -0.9150  0.7209
   34PVA     C3 5618   5.076   1.372   1.430  0.0979 -0.8101  0.4503
   34PVA     H5 5619   5.024   1.451   1.375  1.1837  0.5838  1.3680
   34PVA     H6 5620   5.035   1.381   1.531  0.7269 -1.1787  0.7441
   34PVA     C4 5621   5.028   1.227   1.379  0.8795 -1.3583 -0.3003
   34PVA     H7 5622   5.062   1.229   1.275  0.9462 -0.6042 -0.2683
   34PVA     H8 5623   5.091   1.148   1.422  1.6213 -0.6461 -0.0473
   34PVA     C5 5624   4.871   1.196   1.399 -0.6562 -0.5528  0.0391
   34PVA     H9 5625   4.848   1.158   1.500 -0.8054 -2.4709 -0.6839
   34PVA     O2 5626   4.784   1.312   1.414  0.8928 -0.7396 -0.7413
   34PVA    H10 5627   4.796   1.320   1.510  1.3726 -0.2093 -0.8378
   34PVA     C6 5628   4.808   1.109   1.285 -0.3116  1.4360 -0.1622
   34PVA    H11 5629   4.764   1.189   1.224  0.8549  3.3675  1.4015
   34PVA    H12 5630   4.896   1.072   1.232 -0.3078 -4.7831  3.2078
   34PVA     C7 5631   4.719   0.993   1.326  0.2747  0.6260 -0.7648
   34PVA    H13 5632   4.640   1.034   1.391  0.6036 -1.3302  0.9730
   34PVA    H14 5633   4.760   0.942   1.414  4.4741 -1.0315 -3.4004
   34PVA     C8 5634   4.667   0.888   1.218  0.2714 -0.5090  0.5174
   34PVA    H15 5635   4.712   0.898   1.119 -3.8474  0.4917 -1.4474
   34PVA     O3 5636   4.532   0.932   1.211  0.1980  0.6854 -0.5809
   34PVA    H16 5637   4.498   1.007   1.262 -1.8681  0.7821 -1.9945
   34PVA     C9 5638   4.653   0.740   1.251 -1.2917 -0.0595 -0.6539
   34PVA    H17 5639   4.564   0.729   1.313 -0.5795  0.9454  0.6048
   34PVA    H18 5640   4.738   0.717   1.317  0.8799  4.6539 -1.3277
   34PVA    C10 5641   4.689   0.645   1.137 -0.3594  0.4584 -0.4027
   34PVA    H19 5642   4.665   0.701   1.046  2.0263  0.9169 -0.8186
   34PVA    H20 5643   4.794   0.628   1.112 -0.4287 -0.5911 -0.0321
   34PVA    C11 5644   4.618   0.503   1.141  0.7833  0.0548 -0.3611
   34PVA    H21 5645   4.605   0.483   1.034 -2.3238 -0.1349 -0.0323
   34PVA     O4 5646   4.488   0.514   1.192 -0.1395  0.7501 -0.2613
   34PVA    H22 5647   4.423   0.548   1.129  2.7579  3.5923 -2.0329
   34PVA    C12 5648   4.675   0.366   1.202 -0.0168 -0.9212 -0.2521
   34PVA    H23 5649   4.771   0.386   1.153  0.2933 -0.6493  0.4556
   34PVA    H24 5650   4.680   0.366   1.311  3.2916 -4.6178 -0.1670
   34PVA    C13 5651   4.630   0.224   1.146 -0.8697  1.2770  0.2651
   34PVA    H25 5652   4.640   0.203   1.039  0.6761 -2.5853  1.0267
   34PVA    H26 5653   4.521   0.232   1.149 -0.8522  1.1453  2.0617
   34PVA    C14 5654   4.682   0.083   1.212  0.2222 -0.3011 -0.0244
   34PVA    H27 5655   4.601   0.011   1.193  0.3200  0.4517 -4.5702
   34PVA     O5 5656   4.660   0.117   1.344 -0.3674 -0.3040  0.3124
   34PVA    H28 5657   4.749   0.116   1.383 -0.0373  4.0487  0.1935
   34PVA    C15 5658   4.823   0.020   1.188 -0.5974 -0.3323  0.0454
   34PVA    H29 5659   4.889   0.066   1.263 -1.7322  5.8966 -2.1405
   34PVA    H30 5660   4.862   0.061   1.094 -2.7775 -0.1358 -0.8292
   34PVA    C16 5661   4.828   7.545   1.157 -0.0202 -0.8222 -0.2502
   34PVA    H31 5662   4.779   7.500   1.244 -0.5791 -0.3473 -0.3145
   34PVA    H32 5663   4.761   7.512   1.076  0.0278 -2.5581  0.3753
   34PVA    C17 5664   4.974   7.477   1.155  0.8070 -0.5252 -0.2042
   34PVA    H33 5665   5.024   7.477   1.253 -1.1467 -1.3655  0.8501
   34PVA     O6 5666   5.049   7.551   1.068  0.1641  0.0185  0.9679
   34PVA    H34 5667   4.993   7.557   0.989  2.1456 -2.2908 -0.7924
   34PVA    C18 5668   4.971   7.327   1.104 -0.3293  0.6656 -2.1779
   34PVA    H35 5669   4.909   7.279   1.181 -1.5910  1.2539 -2.7915
   34PVA    H36 5670   4.912   7.296   1.017  0.0459 -2.4170 -1.4653
   34PVA    C19 5671   5.101   7.254   1.092 -1.6344  1.0043  0.2134
   34PVA    H37 5672   5.153   7.295   1.180  3.5108 -0.6402 -1.6527
   34PVA    H38 5673   5.161   7.271   1.002 -0.4388  2.6227  1.2522
   34PVA    C20 5674   5.094   7.095   1.097  0.9679 -0.2801  0.4376
   34PVA    H39 5675   4.988   7.073   1.083  1.4062 -3.0728  0.9391
   34PVA     O7 5676   5.124   7.051   1.225 -0.5212 -0.3691  1.2639
   34PVA    H40 5677   5.172   6.967   1.213 -1.5157 -0.9242  1.0810
   34PVA    C21 5678   5.181   7.005   0.989  0.0085  0.0904  0.3956
   34PVA    H41 5679   5.125   6.997   0.895 -1.3589 -1.3653  1.2866
   34PVA    H42 5680   5.271   7.063   0.966  1.9117 -2.6298  0.4772
   34PVA    C22 5681   5.217   6.857   1.007  1.1666 -0.8863 -0.2947
   34PVA    H43 5682   5.132   6.802   1.049  0.2187 -1.9870 -3.3861
   34PVA    H44 5683   5.299   6.848   1.079 -0.4186  1.2037  1.9256
   34PVA    C23 5684   5.263   6.785   0.876  0.2940 -0.1972  0.1156
   34PVA    H45 5685   5.329   6.842   0.809  2.3089  0.8304  2.7903
   34PVA     O8 5686   5.146   6.747   0.797  0.9366  0.4434  0.0286
   34PVA    H46 5687   5.100   6.821   0.753 -0.3098 -1.4720 -2.1736
   34PVA    C24 5688   5.347   6.651   0.916 -1.9889 -0.4853  0.8050
   34PVA    H47 5689   5.444   6.674   0.960 -2.5777  1.4941  1.1401
   34PVA    H48 5690   5.278   6.599   0.984 -2.5787  2.4819  2.6282
   34PVA    C25 5691   5.366   6.565   0.784  0.3229 -0.5186  0.2458
   34PVA    H49 5692   5.419   6.624   0.709  1.0169 -1.2890  0.1046
   34PVA    H50 5693   5.266   6.545   0.745  0.8725  0.3737 -1.7183
   34PVA    C26 5694   5.445   6.422   0.814  0.1583 -1.8112  0.9587
   34PVA    H51 5695   5.441   6.407   0.923  0.4004 -3.5836  0.7488
   34PVA     O9 5696   5.583   6.440   0.779 -0.4700  0.0987  0.4352
   34PVA    H52 5697   5.595   6.534   0.754  0.4463 -0.6952 -2.6035
   34PVA    C27 5698   5.381   6.303   0.736  0.0434  0.2569 -0.8196
   34PVA    H53 5699   5.370   6.346   0.635 -1.7106  2.8146  0.3481
   34PVA    H54 5700   5.282   6.280   0.775 -0.5341  0.6115 -2.0165
   34PVA    C28 5701   5.476   6.180   0.733 -1.9140  0.9714  0.0836
   34PVA    H55 5702   5.525   6.175   0.635  0.8473 -0.1504  1.4081
   34PVA    H56 5703   5.567   6.195   0.792 -0.4402 -0.9082 -1.5599
   34PVA    C29 5704   5.419   6.037   0.735 -1.3006  0.7838 -0.5785
   34PVA    H57 5705   5.395   5.990   0.639  3.0743 -2.1687 -0.5001
   34PVA    O10 5706   5.304   6.028   0.821 -1.4502 -0.5121  0.1303
   34PVA    H58 5707   5.312   6.085   0.900 -0.3080 -0.9299  0.3375
   34PVA    C30 5708   5.525   5.922   0.773  0.1109  1.6140  0.0720
   34PVA    H59 5709   5.615   5.936   0.713 -1.3077  2.2109 -2.0341
   34PVA    H60 5710   5.557   5.945   0.875 -1.5325 -5.0848  2.6253
   34PVA    C31 5711   5.459   5.769   0.791  0.6729 -0.8332 -0.4798
   34PVA    H61 5712   5.458   5.733   0.687 -0.2436 -0.6912 -0.5293
   34PVA    H62 5713   5.360   5.785   0.836 -0.3588 -0.4132 -2.7621
   34PVA    C32 5714   5.541   5.669   0.888 -0.8216  1.2366  0.5428
   34PVA    H63 5715   5.539   5.717   0.987  3.5199 -1.5718  2.2733
   34PVA    O11 5716   5.678   5.682   0.848  0.3613 -0.3197  0.2748
   34PVA    H64 5717   5.671   5.689   0.751 -2.4889  0.4859  0.4508
   34PVA    C33 5718   5.491   5.519   0.879 -0.6360  0.9467 -0.4025
   34PVA    H65 5719   5.499   5.484   0.776  2.7598 -1.3788  0.4662
   34PVA    H66 5720   5.387   5.509   0.912 -1.1554  2.3638 -1.5484
   34PVA    C34 5721   5.577   5.417   0.967  0.5281 -0.9570  0.7679
   34PVA    H67 5722   5.651   5.369   0.901  1.0801  1.3613 -0.3989
   34PVA    H68 5723   5.643   5.467   1.039 -0.0144  2.9638 -1.1666
   34PVA    C35 5724   5.509   5.311   1.044 -0.1255  0.9684 -0.2340
   34PVA    H69 5725   5.446   5.260   0.970  3.1074 -0.4875 -2.1984
   34PVA    O12 5726   5.423   5.367   1.140  1.1604  0.9350  0.1635
   34PVA    H70 5727   5.364   5.294   1.165  1.4868 -0.7032 -3.1898
   34PVA    C36 5728   5.614   5.215   1.099 -0.4460  0.6537 -1.1945
   34PVA    H71 5729   5.619   5.132   1.027  1.6970 -0.9603  0.6856
   34PVA    H72 5730   5.710   5.266   1.108 -1.9176  3.6608 -1.2955
   34PVA    C37 5731   5.573   5.141   1.234 -0.7703 -0.2983  0.3776
   34PVA    H73 5732   5.473   5.098   1.220  0.7188 -3.8846 -0.1832
   34PVA    H74 5733   5.568   5.210   1.319 -1.3066 -0.6190  0.6122
   34PVA    C38 5734   5.669   5.018   1.263 -0.8053  1.2024  0.1389
   34PVA    H75 5735   5.773   5.037   1.234 -0.6771 -1.4389 -1.4080
   34PVA    O13 5736   5.622   4.917   1.174  0.3861 -0.2123  0.5064
   34PVA    H76 5737   5.685   4.844   1.167 -2.8228 -3.3463  1.4383
   34PVA    C39 5738   5.677   4.982   1.417  0.7273  0.1029  0.0957
   34PVA    H77 5739   5.574   4.990   1.455  1.2538  1.2671  1.3488
   34PVA    H78 5740   5.728   5.078   1.433  0.4473  0.3355 -0.3674
   34PVA    C40 5741   5.757   4.844   1.463 -0.9198 -0.7852 -0.5558
   34PVA    H79 5742   5.680   4.770   1.438  1.2468 -3.8672  1.0688
   34PVA    H80 5743   5.842   4.822   1.396  1.1085 -2.4486  2.3212
   34PVA    C41 5744   5.807   4.826   1.617  0.7923  0.2459  0.0673
   34PVA    H81 5745   5.868   4.905   1.661 -0.1575  1.0519 -0.0157
   34PVA    O14 5746   5.679   4.812   1.684 -0.5087  0.1040 -0.5997
   34PVA    H82 5747   5.706   4.761   1.762  0.3879 -1.3483 -1.8044
   34PVA    C42 5748   5.887   4.695   1.636 -0.6027  1.0644 -0.7469
   34PVA    H83 5749   5.828   4.602   1.629 -0.8208  0.3239  5.6528
   34PVA    H84 5750   5.968   4.682   1.564  1.4545  2.6006  1.1681
   34PVA    C43 5751   5.969   4.687   1.773  1.3940 -0.4673 -0.9169
   34PVA    H85 5752   5.896   4.699   1.853  1.7828  4.0612 -0.9854
   34PVA    H86 5753   6.049   4.761   1.776  1.0398 -0.1223  0.7350
   34PVA    C44 5754   6.032   4.542   1.796  0.1812  1.2362 -0.0258
   34PVA    H87 5755   6.039   4.485   1.703 -0.1793  2.7405 -1.0161
   34PVA    O15 5756   5.935   4.479   1.879  0.3037  0.1648  0.2191
   34PVA    H88 5757   5.885   4.552   1.920 -0.7122 -0.4078  0.0194
   34PVA    C45 5758   6.166   4.526   1.868  0.7142  0.4304 -0.0660
   34PVA    H89 5759   6.159   4.569   1.969  3.3344  0.3375  0.2372
   34PVA    H90 5760   6.249   4.577   1.817  1.9805 -1.1511  0.3170
   34PVA    C46 5761   6.231   4.380   1.865 -0.1936  0.0683 -0.6723
   34PVA    H91 5762   6.183   4.330   1.950  1.3245  4.2405  2.9711
   34PVA    H92 5763   6.213   4.328   1.770 -0.9839  2.4538 -1.9263
   34PVA    C47 5764   6.373   4.365   1.910 -0.3219 -0.4436  0.0049
   34PVA    H93 5765   6.429   4.401   1.824  0.8908  0.2330  1.0514
   34PVA    O16 5766   6.399   4.454   2.025  0.4368  0.3274  0.2599
   34PVA    H94 5767   6.485   4.428   2.061 -0.8760 -0.5238  3.0744
   34PVA    C48 5768   6.414   4.209   1.929  0.0339  0.5626 -1.1140
   34PVA    H95 5769   6.375   4.172   2.025 -5.0725 -0.8943 -3.3842
   34PVA    H96 5770   6.366   4.154   1.847 -0.9303  2.4322 -1.8810
   34PVA    C49 5771   6.559   4.156   1.927 -0.2801  0.6251  0.1919
   34PVA    H97 5772   6.608   4.224   1.998 -2.6413  3.1060 -0.3515
   34PVA    H98 5773   6.595   4.187   1.828  1.5189  2.3505  1.3237
   34PVA    C50 5774   6.595   4.001   1.956 -0.9458 -0.6000  0.1880
   34PVA    H99 5775   6.652   3.998   2.049  1.3399 -3.5368 -1.1232
   34PVA    O17 5776   6.471   3.933   1.971  0.6372  0.1182 -0.1546
   34PVA   H100 5777   6.423   3.961   2.051  0.0442  0.8592 -0.7605
   34PVA    C51 5778   6.688   3.912   1.863 -0.1656 -0.5767  0.0826
   34PVA   H101 5779   6.792   3.947   1.875  0.1263 -0.9430 -1.1776
   34PVA   H102 5780   6.644   3.932   1.765 -0.5863  2.7974  0.8426
   35PVA     C1 5781   5.620   1.906   1.611  0.0769  0.4591  1.6128
   35PVA     H1 5782   5.539   1.978   1.591 -0.0365  0.4196  1.9122
   35PVA     H2 5783   5.672   1.902   1.515  0.7108 -0.8313  1.9879
   35PVA     C2 5784   5.707   1.973   1.719 -0.2688  0.4785 -0.4602
   35PVA     H3 5785   5.662   2.011   1.811  0.2305 -1.0995  0.4736
   35PVA     O1 5786   5.820   1.894   1.751  0.1207 -0.3926  0.3394
   35PVA     H4 5787   5.786   1.805   1.729 -0.7341  0.0460 -0.1714
   35PVA     C3 5788   5.765   2.101   1.650  0.2120 -0.3415  0.4492
   35PVA     H5 5789   5.750   2.181   1.724  2.4950 -1.0805  1.8122
   35PVA     H6 5790   5.710   2.131   1.560 -0.3611 -1.0032  0.5686
   35PVA     C4 5791   5.921   2.098   1.600  0.2102  0.1242 -0.7222
   35PVA     H7 5792   6.001   2.112   1.673  1.3635  1.6280 -2.1852
   35PVA     H8 5793   5.946   2.002   1.553  1.9649 -0.9994  2.2899
   35PVA     C5 5794   5.942   2.220   1.508 -0.3596  0.8537  0.4735
   35PVA     H9 5795   5.868   2.216   1.428  0.8827  0.3652 -0.7022
   35PVA     O2 5796   5.917   2.335   1.571  1.0849 -0.3807  0.1521
   35PVA    H10 5797   5.840   2.378   1.529  1.8168 -0.5943 -1.4775
   35PVA     C6 5798   6.076   2.223   1.433 -0.0469  0.9684 -0.6968
   35PVA    H11 5799   6.094   2.122   1.396  2.2001  0.1393  2.3023
   35PVA    H12 5800   6.057   2.294   1.351 -0.9975  4.6618  2.3943
   35PVA     C7 5801   6.197   2.272   1.498 -1.3227 -1.2199 -0.1466
   35PVA    H13 5802   6.216   2.218   1.592 -0.9544 -1.2944 -0.2631
   35PVA    H14 5803   6.184   2.377   1.525  2.6515 -0.5132 -0.3187
   35PVA     C8 5804   6.318   2.281   1.407 -0.6122  0.2704  0.6616
   35PVA    H15 5805   6.319   2.189   1.347  0.6058 -0.7575  2.1668
   35PVA     O3 5806   6.320   2.397   1.315  0.6438 -0.8887  0.6400
   35PVA    H16 5807   6.335   2.466   1.383  3.0258  0.0632 -0.7602
   35PVA     C9 5808   6.454   2.293   1.478  0.2284  1.3864 -0.3750
   35PVA    H17 5809   6.457   2.226   1.564  0.2512 -0.2205 -1.5678
   35PVA    H18 5810   6.493   2.391   1.507  3.7893  1.0000 -3.0513
   35PVA    C10 5811   6.574   2.264   1.381 -0.4387  0.8048  0.5841
   35PVA    H19 5812   6.566   2.328   1.293 -3.3917 -2.0210 -1.4608
   35PVA    H20 5813   6.564   2.165   1.333  0.0533  1.8359 -1.7843
   35PVA    C11 5814   6.725   2.260   1.435 -0.0043 -0.4076 -0.6304
   35PVA    H21 5815   6.732   2.158   1.477 -2.7724  1.2172  4.8015
   35PVA     O4 5816   6.749   2.350   1.536 -0.0084 -0.0974  0.3559
   35PVA    H22 5817   6.793   2.418   1.482 -3.2378 -1.7111 -5.1738
   35PVA    C12 5818   6.839   2.307   1.336  0.3750 -0.8056 -0.1851
   35PVA    H23 5819   6.818   2.257   1.241 -0.4400 -1.5949  0.3881
   35PVA    H24 5820   6.836   2.414   1.310  4.8594 -0.7393 -1.2179
   35PVA    C13 5821   6.991   2.272   1.371 -0.9253 -0.9113 -0.4845
   35PVA    H25 5822   7.016   2.175   1.325 -0.1058 -1.0960  0.3225
   35PVA    H26 5823   7.005   2.260   1.479  2.4439  2.1764 -0.3892
   35PVA    C14 5824   7.079   2.373   1.308  0.3683 -0.9930 -1.0232
   35PVA    H27 5825   7.049   2.396   1.205  2.9654 -1.3530 -1.9229
   35PVA     O5 5826   7.080   2.495   1.386  0.9965 -0.7613 -0.6170
   35PVA    H28 5827   7.174   2.513   1.401  1.1239 -0.7639 -1.3826
   35PVA    C15 5828   7.222   2.334   1.312  0.0050  0.8679  0.6464
   35PVA    H29 5829   7.214   2.237   1.262 -1.6649  0.7757  1.0330
   35PVA    H30 5830   7.249   2.321   1.417 -2.6299 -1.2317  1.1745
   35PVA    C16 5831   7.327   2.436   1.248  0.5361 -0.7390 -0.4273
   35PVA    H31 5832   7.271   2.526   1.217  1.6483  0.8391  1.8481
   35PVA    H32 5833   7.389   2.393   1.169 -0.8318 -1.6711 -1.0391
   35PVA    C17 5834   7.426   2.509   1.350  1.3162 -0.1018  0.3988
   35PVA    H33 5835   7.447   2.441   1.434  1.7670 -2.9737 -1.8806
   35PVA     O6 5836   7.381   2.640   1.397  0.9123 -0.1462  1.6541
   35PVA    H34 5837   7.396   2.641   1.493 -3.2187 -0.7650  2.5148
   35PVA    C18 5838   7.558   2.529   1.267 -0.8958 -0.2285  0.4356
   35PVA    H35 5839   7.603   2.430   1.267 -0.9587 -0.2757 -0.9812
   35PVA    H36 5840   7.554   2.584   1.172  0.0580  2.1375  1.6659
   35PVA    C19 5841   7.661   2.613   1.354 -0.0377 -1.0346 -0.7345
   35PVA    H37 5842   7.623   2.716   1.353 -0.3718 -1.1561 -1.8216
   35PVA    H38 5843   7.641   2.580   1.457  0.1577 -2.0301 -1.0036
   35PVA    C20 5844   0.043   2.614   1.328  0.3432  0.1782 -0.3068
   35PVA    H39 5845   0.061   2.674   1.237  0.6589 -0.6402 -0.7957
   35PVA     O7 5846   0.088   2.481   1.281  0.2276 -0.1500  0.9093
   35PVA    H40 5847   0.044   2.417   1.340 -1.0021  1.2161  1.5640
   35PVA    C21 5848   0.122   2.654   1.454  0.0730 -0.7430  0.4929
   35PVA    H41 5849   0.123   2.764   1.450  1.4035 -0.7889 -1.4273
   35PVA    H42 5850   0.068   2.629   1.547  1.3904  0.1761  1.5378
   35PVA    C22 5851   0.270   2.622   1.460 -0.9669 -0.0553  1.2684
   35PVA    H43 5852   0.320   2.658   1.369 -0.8500  0.6262  1.5908
   35PVA    H44 5853   0.273   2.513   1.461  1.5677 -0.0695  0.2499
   35PVA    C23 5854   0.344   2.687   1.581 -0.5413 -0.1453 -0.0622
   35PVA    H45 5855   0.291   2.655   1.672 -6.0937 -2.4283 -3.6197
   35PVA     O8 5856   0.331   2.827   1.554 -0.4407 -0.2292 -0.5209
   35PVA    H46 5857   0.381   2.875   1.622 -0.1816  0.4079 -1.1536
   35PVA    C24 5858   0.499   2.657   1.583 -1.8548 -0.3776 -0.2736
   35PVA    H47 5859   0.556   2.674   1.491 -1.4580  1.1181  0.2292
   35PVA    H48 5860   0.557   2.723   1.649 -0.0219  0.9578 -3.0432
   35PVA    C25 5861   0.522   2.514   1.621 -0.3474  0.3915 -1.0091
   35PVA    H49 5862   0.464   2.438   1.567 -0.3257  0.4457 -1.1081
   35PVA    H50 5863   0.470   2.506   1.717  3.2505  0.1194  1.0991
   35PVA    C26 5864   0.660   2.458   1.650  1.0878 -1.6934  0.2116
   35PVA    H51 5865   0.662   2.352   1.678 -0.2120 -1.0416  3.0468
   35PVA     O9 5866   0.725   2.531   1.757  0.0965 -0.4605 -0.9054
   35PVA    H52 5867   0.731   2.457   1.820  0.3171  1.0179  0.9108
   35PVA    C27 5868   0.752   2.467   1.518  0.9672  0.4317 -0.1942
   35PVA    H53 5869   0.701   2.397   1.451  0.8144  1.3346 -1.0395
   35PVA    H54 5870   0.737   2.563   1.468  1.6002  2.3572  3.0435
   35PVA    C28 5871   0.899   2.446   1.553 -0.4390  0.2558 -0.6416
   35PVA    H55 5872   0.899   2.364   1.626  2.4569 -0.3008 -1.1259
   35PVA    H56 5873   0.942   2.532   1.607  0.6550 -2.4540  3.2944
   35PVA    C29 5874   0.989   2.432   1.434 -0.6299  0.5982 -0.0885
   35PVA    H57 5875   0.922   2.373   1.369 -1.7318  1.9068 -0.1853
   35PVA    O10 5876   1.025   2.569   1.397  0.3055 -0.3735 -0.1624
   35PVA    H58 5877   1.036   2.608   1.485  1.6120 -1.7934  0.3677
   35PVA    C30 5878   1.118   2.348   1.470 -0.0510  0.0098 -0.1335
   35PVA    H59 5879   1.190   2.414   1.521 -2.3842  1.1745  1.9056
   35PVA    H60 5880   1.109   2.277   1.553  1.1433  0.7813  0.6864
   35PVA    C31 5881   1.160   2.264   1.349 -1.1872 -0.4811  0.3163
   35PVA    H61 5882   1.171   2.325   1.258 -0.5185  1.5111  1.6759
   35PVA    H62 5883   1.081   2.189   1.332 -0.4621 -1.2217  0.1216
   35PVA    C32 5884   1.287   2.175   1.372  0.4166 -0.0279  1.1976
   35PVA    H63 5885   1.380   2.229   1.393  2.2340 -3.3018  2.1752
   35PVA    O11 5886   1.252   2.092   1.493  0.1965 -0.4122  0.4626
   35PVA    H64 5887   1.280   1.999   1.479  1.8658 -0.7627  4.6371
   35PVA    C33 5888   1.308   2.081   1.248  0.6331 -0.1911  0.4156
   35PVA    H65 5889   1.232   2.004   1.263 -0.8582  1.2821  0.7028
   35PVA    H66 5890   1.286   2.137   1.156  2.4262  1.1043  0.7258
   35PVA    C34 5891   1.445   2.015   1.202  1.3708 -1.0102  0.6616
   35PVA    H67 5892   1.507   2.098   1.167  1.7067 -1.7728 -0.6133
   35PVA    H68 5893   1.504   1.993   1.292  0.8650  4.0054  2.5339
   35PVA    C35 5894   1.438   1.903   1.096  0.3146  0.8583 -0.3282
   35PVA    H69 5895   1.352   1.928   1.033 -2.2664 -5.2214  0.0669
   35PVA    O12 5896   1.382   1.795   1.187 -0.4301 -0.1076 -0.2805
   35PVA    H70 5897   1.301   1.751   1.156 -2.8265  1.7833  2.7520
   35PVA    C36 5898   1.561   1.853   1.010 -0.2508 -0.0242 -0.8437
   35PVA    H71 5899   1.606   1.762   1.051  0.3628  1.1489  1.2130
   35PVA    H72 5900   1.630   1.936   0.989  2.1046 -1.8532 -0.8210
   35PVA    C37 5901   1.506   1.812   0.867  0.2369  0.8078  0.6870
   35PVA    H73 5902   1.473   1.893   0.801  1.9429 -0.1670 -1.5105
   35PVA    H74 5903   1.409   1.763   0.876 -0.0912  1.6510  1.9805
   35PVA    C38 5904   1.606   1.732   0.781 -0.1862  0.3481 -0.1176
   35PVA    H75 5905   1.635   1.637   0.828  0.4307  0.8700  0.5913
   35PVA    O13 5906   1.727   1.820   0.766  0.0107  0.2299 -0.2424
   35PVA    H76 5907   1.718   1.884   0.694 -1.3013  1.7398  1.1778
   35PVA    C39 5908   1.548   1.697   0.641 -0.3118  0.2363 -0.3092
   35PVA    H77 5909   1.571   1.773   0.565 -2.8436 -1.8410 -3.4446
   35PVA    H78 5910   1.440   1.679   0.645  0.0404 -1.9801  1.5980
   35PVA    C40 5911   1.619   1.567   0.590 -0.2443 -0.0375  0.2553
   35PVA    H79 5912   1.711   1.601   0.541 -1.6445  1.0631 -1.7546
   35PVA    H80 5913   1.646   1.499   0.672 -1.7673 -2.6975 -1.3151
   35PVA    C41 5914   1.546   1.485   0.473 -0.6136  0.1580 -0.2169
   35PVA    H81 5915   1.586   1.535   0.384 -1.0878  0.1426 -0.4415
   35PVA    O14 5916   1.408   1.503   0.463 -0.9254 -0.7115 -0.3736
   35PVA    H82 5917   1.376   1.498   0.371  0.4443 -1.0110 -0.8554
   35PVA    C42 5918   1.582   1.329   0.445 -0.0042  0.4544  0.4174
   35PVA    H83 5919   1.601   1.322   0.337  1.4322 -1.9485  0.7600
   35PVA    H84 5920   1.679   1.309   0.491  0.2593  0.7296 -0.0066
   35PVA    C43 5921   1.485   1.220   0.496  0.0024  0.6328  0.6940
   35PVA    H85 5922   1.389   1.225   0.443  0.7858  3.8215 -0.6823
   35PVA    H86 5923   1.464   1.216   0.603  2.9812  1.6066  1.3904
   35PVA    C44 5924   1.524   1.071   0.482 -0.2700 -0.0236  0.6605
   35PVA    H87 5925   1.512   1.047   0.376  0.8576  0.9926  0.2878
   35PVA    O15 5926   1.658   1.052   0.517  0.2491 -0.3189  1.0128
   35PVA    H88 5927   1.708   1.130   0.489 -4.7587  2.0543 -2.7703
   35PVA    C45 5928   1.433   0.978   0.557  0.2952  0.1426 -0.1664
   35PVA    H89 5929   1.445   0.980   0.666  0.6343 -2.6820 -0.0996
   35PVA    H90 5930   1.331   1.017   0.541 -0.7435 -1.0519  2.8592
   35PVA    C46 5931   1.423   0.830   0.517  0.8528 -0.4019  0.3813
   35PVA    H91 5932   1.355   0.834   0.431 -0.5696 -1.9416  1.3893
   35PVA    H92 5933   1.368   0.777   0.595  2.6087 -1.5452  0.9033
   35PVA    C47 5934   1.562   0.758   0.504  0.6847 -0.0387 -0.0230
   35PVA    H93 5935   1.617   0.815   0.429 -1.6914  1.7071 -0.5848
   35PVA    O16 5936   1.646   0.782   0.612 -0.4338 -0.2155 -0.5060
   35PVA    H94 5937   1.596   0.846   0.664 -2.3644 -1.7804 -0.3176
   35PVA    C48 5938   1.548   0.614   0.465  0.5790  0.0039 -0.7209
   35PVA    H95 5939   1.595   0.547   0.537  1.2049  1.3739  0.1951
   35PVA    H96 5940   1.440   0.594   0.465 -1.4497  7.7747 -0.5638
   35PVA    C49 5941   1.589   0.558   0.325  1.1135 -0.5832 -1.9422
   35PVA    H97 5942   1.696   0.584   0.324  0.5713  1.8317 -1.8977
   35PVA    H98 5943   1.541   0.622   0.251 -0.7024  1.1826  0.5840
   35PVA    C50 5944   1.558   0.413   0.297 -0.7393 -0.0007 -0.9246
   35PVA    H99 5945   1.473   0.393   0.364 -2.5187  2.2864 -2.3760
   35PVA    O17 5946   1.671   0.347   0.354 -0.0778  0.1105 -0.5095
   35PVA   H100 5947   1.719   0.411   0.410  1.1132 -1.1995  0.0068
   35PVA    C51 5948   1.548   0.369   0.142 -0.1998  0.2639  0.5269
   35PVA   H101 5949   1.651   0.348   0.109 -0.3496  1.1585 -0.5663
   35PVA   H102 5950   1.507   0.444   0.074 -2.7438 -0.7111  0.8840
   36PVA     C1 5951   7.246   3.557   1.048  0.6829  1.1168 -0.0610
   36PVA     H1 5952   7.351   3.531   1.029  0.2547 -2.5731  1.7282
   36PVA     H2 5953   7.232   3.664   1.066  0.6857  1.3731 -1.4941
   36PVA     C2 5954   7.177   3.525   0.922  0.1637  0.5082  0.8585
   36PVA     H3 5955   7.137   3.424   0.937  2.9425 -0.4333  2.8951
   36PVA     O1 5956   7.060   3.620   0.902 -0.9247 -0.5348 -0.6516
   36PVA     H4 5957   7.010   3.618   0.819  1.4836 -1.6339 -2.1702
   36PVA     C3 5958   7.258   3.513   0.794 -0.6594 -0.6198  0.4045
   36PVA     H5 5959   7.355   3.472   0.825  1.2414  1.1671 -2.6950
   36PVA     H6 5960   7.270   3.620   0.776 -1.0914 -0.2591  2.0738
   36PVA     C4 5961   7.193   3.445   0.659  0.3983 -0.7476  0.0033
   36PVA     H7 5962   7.094   3.492   0.654  0.6011  0.1731  2.6772
   36PVA     H8 5963   7.182   3.336   0.661  2.1380 -0.9645  0.0283
   36PVA     C5 5964   7.252   3.461   0.508  0.4342 -0.4653 -0.9250
   36PVA     H9 5965   7.296   3.559   0.490 -1.8398  1.3923  2.4601
   36PVA     O2 5966   7.340   3.361   0.496 -0.1889  0.0339 -0.5100
   36PVA    H10 5967   7.421   3.374   0.548 -1.4924 -0.1465  1.6935
   36PVA     C6 5968   7.151   3.425   0.386 -0.0925  0.8071  0.2144
   36PVA    H11 5969   7.091   3.516   0.372  1.5247  1.8970  0.0657
   36PVA    H12 5970   7.086   3.346   0.426  2.0076 -0.4930  1.2477
   36PVA     C7 5971   7.210   3.393   0.250  0.0645 -0.2777  0.1872
   36PVA    H13 5972   7.261   3.296   0.262  0.5707  0.0677  0.9109
   36PVA    H14 5973   7.283   3.472   0.229 -2.4117  1.9759 -0.4949
   36PVA     C8 5974   7.109   3.396   0.115 -0.4262 -0.0698 -1.2510
   36PVA    H15 5975   7.087   3.503   0.105  3.1829  1.0186  0.5483
   36PVA     O3 5976   6.996   3.316   0.130  0.4119  0.1152  0.3330
   36PVA    H16 5977   7.013   3.223   0.155  0.8909  0.3550  0.9310
   36PVA     C9 5978   7.188   3.369   8.076  0.9939 -0.8643 -1.4899
   36PVA    H17 5979   7.250   3.279   8.087  1.0804 -0.7939 -1.3889
   36PVA    H18 5980   7.257   3.454   8.066 -0.6490  0.7550  0.1184
   36PVA    C10 5981   7.107   3.356   7.953  1.8646  0.5171  0.7269
   36PVA    H19 5982   7.041   3.269   7.936  1.2792  1.3396 -1.6522
   36PVA    H20 5983   7.024   3.427   7.957  0.3589 -0.6997 -3.4498
   36PVA    C11 5984   7.165   3.386   7.806 -0.1902  0.2534 -0.5871
   36PVA    H21 5985   7.270   3.415   7.819 -1.0326  2.5078  2.4359
   36PVA     O4 5986   7.092   3.482   7.744 -0.5474 -0.2347  0.5562
   36PVA    H22 5987   7.138   3.503   7.661 -2.8908  3.2640 -0.0487
   36PVA    C12 5988   7.178   3.274   7.689 -0.0455  0.9550 -0.0625
   36PVA    H23 5989   7.201   3.185   7.749  1.2160 -0.0650 -1.9519
   36PVA    H24 5990   7.075   3.263   7.653 -0.2642  0.9380  0.5462
   36PVA    C13 5991   7.299   3.287   7.595  0.3865  0.2663  0.3709
   36PVA    H25 5992   7.285   3.375   7.531  2.0082 -1.6142 -2.8504
   36PVA    H26 5993   7.389   3.291   7.658  0.2527 -3.3531  1.0122
   36PVA    C14 5994   7.312   3.167   7.501 -0.6356  0.5735  0.1971
   36PVA    H27 5995   7.309   3.078   7.566  1.6313  0.4725  0.2473
   36PVA     O5 5996   7.210   3.165   7.415  0.7593 -0.1797  0.2384
   36PVA    H28 5997   7.240   3.246   7.369  0.8701 -0.3149  0.0688
   36PVA    C15 5998   7.460   3.154   7.432  1.0756 -1.2386  0.6404
   36PVA    H29 5999   7.512   3.250   7.421  0.4128 -0.7367  1.7072
   36PVA    H30 6000   7.519   3.089   7.497  4.0650  0.3231 -0.2886
   36PVA    C16 6001   7.463   3.096   7.283  0.4533  0.3741 -0.1203
   36PVA    H31 6002   7.424   2.993   7.284  0.8750 -0.0071  5.2937
   36PVA    H32 6003   7.400   3.162   7.222 -1.5715 -1.7736 -0.5106
   36PVA    C17 6004   7.597   3.099   7.190  0.4258  0.1963 -0.2971
   36PVA    H33 6005   7.660   3.013   7.216 -1.9426 -1.6459 -0.2579
   36PVA     O6 6006   7.666   3.215   7.250 -0.3876 -0.0856 -0.0068
   36PVA    H34 6007   7.757   3.193   7.277 -0.0744  1.4197  0.2783
   36PVA    C18 6008   7.587   3.142   7.036  0.2291  1.0485  0.2142
   36PVA    H35 6009   7.562   3.248   7.021 -2.2579  0.4888  0.0445
   36PVA    H36 6010   7.504   3.091   6.986  0.7469  0.6008 -0.2112
   36PVA    C19 6011   7.713   3.121   6.953  0.3310 -0.5062 -0.4970
   36PVA    H37 6012   7.759   3.027   6.988  0.8482 -0.3912 -0.8520
   36PVA    H38 6013   0.018   3.196   6.990  1.7510 -2.5260  1.1730
   36PVA    C20 6014   7.732   3.119   6.795  0.1211 -0.5438  0.5307
   36PVA    H39 6015   7.714   3.225   6.772  1.4393  0.5569  4.0369
   36PVA     O7 6016   7.655   3.024   6.722 -0.4744  0.8687  0.4393
   36PVA    H40 6017   7.684   2.933   6.736  0.2837  1.0386  0.0064
   36PVA    C21 6018   0.117   3.122   6.739  0.3910 -0.0054 -0.0282
   36PVA    H41 6019   0.193   3.125   6.818 -0.2503 -0.3425  0.6139
   36PVA    H42 6020   0.115   3.216   6.682 -2.3475 -0.1755 -0.3276
   36PVA    C22 6021   0.176   3.018   6.641  0.3620 -0.3773  0.1892
   36PVA    H43 6022   0.182   2.925   6.697 -4.5386  1.0691  3.7874
   36PVA    H44 6023   0.105   2.985   6.564 -0.3677 -6.9444  3.0119
   36PVA    C23 6024   0.317   3.056   6.578  1.1994 -0.4846  0.2325
   36PVA    H45 6025   0.393   3.088   6.651 -1.2539  1.9829  1.9121
   36PVA     O8 6026   0.300   3.167   6.495 -0.6262  0.1650  0.1600
   36PVA    H46 6027   0.391   3.198   6.482 -0.5248  0.1284  0.7487
   36PVA    C24 6028   0.394   2.943   6.496 -0.2639  0.1800 -0.4269
   36PVA    H47 6029   0.325   2.863   6.468 -3.1900  2.9207 -1.6076
   36PVA    H48 6030   0.435   2.980   6.401  3.8758 -0.0384  1.0751
   36PVA    C25 6031   0.521   2.878   6.560 -0.0712  0.2422 -0.0708
   36PVA    H49 6032   0.482   2.817   6.642 -1.8688  0.1017 -1.0055
   36PVA    H50 6033   0.585   2.956   6.605  0.5364 -0.8731  1.0537
   36PVA    C26 6034   0.602   2.777   6.473  0.0683 -0.0248  1.4204
   36PVA    H51 6035   0.640   2.830   6.385 -1.3683  1.2384  1.5247
   36PVA     O9 6036   0.516   2.676   6.415 -0.2560  0.5380  0.0876
   36PVA    H52 6037   0.529   2.647   6.323 -0.1790  1.9999 -0.3817
   36PVA    C27 6038   0.714   2.701   6.562  0.1581  0.0336  0.6794
   36PVA    H53 6039   0.787   2.761   6.617 -2.3412  4.4759 -0.3394
   36PVA    H54 6040   0.685   2.648   6.654  0.7132  1.2378  1.5709
   36PVA    C28 6041   0.819   2.610   6.482 -0.5027 -0.0913 -0.0229
   36PVA    H55 6042   0.772   2.519   6.441  0.3202 -0.9783  0.9373
   36PVA    H56 6043   0.841   2.667   6.391 -3.7511  1.0489 -0.2176
   36PVA    C29 6044   0.953   2.560   6.553 -0.0767  1.0027 -0.4431
   36PVA    H57 6045   0.943   2.500   6.644  1.0675 -0.9909 -1.5440
   36PVA    O10 6046   1.030   2.656   6.609 -0.3061  0.4548 -0.0346
   36PVA    H58 6047   1.061   2.714   6.537 -0.6579  0.7829  0.0765
   36PVA    C30 6048   1.045   2.455   6.466  1.0471 -0.3679 -0.3963
   36PVA    H59 6049   0.966   2.386   6.432 -1.6906  2.5002 -0.3574
   36PVA    H60 6050   1.082   2.507   6.377  0.5500 -0.5500 -0.7163
   36PVA    C31 6051   1.160   2.387   6.548  0.6452 -0.5055  1.0037
   36PVA    H61 6052   1.257   2.438   6.542  1.2611 -1.7892 -1.7716
   36PVA    H62 6053   1.129   2.414   6.649 -0.0982  0.9415  0.4220
   36PVA    C32 6054   1.204   2.238   6.538 -0.0719 -1.2339 -0.1089
   36PVA    H63 6055   1.140   2.179   6.471  2.5973  0.1029 -4.2029
   36PVA    O11 6056   1.319   2.234   6.455 -0.1062 -0.4579  0.3215
   36PVA    H64 6057   1.392   2.191   6.502  0.8470 -0.9254 -1.4809
   36PVA    C33 6058   1.245   2.167   6.673  0.0638  0.4445 -0.5161
   36PVA    H65 6059   1.350   2.187   6.698 -0.1133 -2.7918  3.9904
   36PVA    H66 6060   1.204   2.222   6.758 -0.5699 -2.6324  1.3448
   36PVA    C34 6061   1.213   2.021   6.711 -0.0680 -0.0838 -0.8441
   36PVA    H67 6062   1.105   2.011   6.693 -0.2203  2.9329 -2.1401
   36PVA    H68 6063   1.243   1.959   6.625  1.2176 -0.4851 -0.1266
   36PVA    C35 6064   1.257   1.960   6.846  0.2787 -0.2092  0.8980
   36PVA    H69 6065   1.180   1.983   6.920  0.8565  0.6953  1.2204
   36PVA    O12 6066   1.382   2.019   6.882 -0.1626  0.6841 -0.6743
   36PVA    H70 6067   1.429   1.944   6.923  1.5881  0.6715 -2.5142
   36PVA    C36 6068   1.250   1.798   6.851  0.5063 -0.3517 -0.5296
   36PVA    H71 6069   1.145   1.772   6.836  0.6016 -0.4453 -1.0616
   36PVA    H72 6070   1.293   1.755   6.760  0.1383  0.8834 -1.3031
   36PVA    C37 6071   1.300   1.744   6.995  0.0079 -0.1015 -0.1859
   36PVA    H73 6072   1.277   1.825   7.065 -0.9653 -0.6256  0.1147
   36PVA    H74 6073   1.410   1.740   6.995  0.0779  0.6974  1.7532
   36PVA    C38 6074   1.250   1.602   7.046  0.3381 -0.4009  0.4170
   36PVA    H75 6075   1.169   1.574   6.978  0.0372  1.0281  0.1411
   36PVA    O13 6076   1.364   1.518   7.037  0.2650 -0.8261  0.4143
   36PVA    H76 6077   1.446   1.544   7.083  1.4556 -4.4300  0.6113
   36PVA    C39 6078   1.197   1.590   7.194 -0.0717 -0.0159  0.7926
   36PVA    H77 6079   1.115   1.662   7.201  0.3847  0.8160 -1.4022
   36PVA    H78 6080   1.283   1.627   7.250  1.4804 -1.4539 -0.5025
   36PVA    C40 6081   1.139   1.444   7.240  0.3177 -0.1457 -1.3710
   36PVA    H79 6082   1.217   1.371   7.264  0.3222  0.3821  0.4009
   36PVA    H80 6083   1.074   1.391   7.169 -0.2474  1.9873 -2.5458
   36PVA    C41 6084   1.060   1.422   7.381  0.1059 -0.8884 -0.6604
   36PVA    H81 6085   1.130   1.442   7.462 -0.6533  2.7900 -0.7476
   36PVA    O14 6086   0.941   1.503   7.383  0.4840  0.0018 -0.7276
   36PVA    H82 6087   0.978   1.593   7.393  3.2000 -1.2647  4.2554
   36PVA    C42 6088   1.011   1.268   7.386  0.1330  1.0108  0.3114
   36PVA    H83 6089   0.921   1.264   7.324  0.3346 -0.3903  0.0738
   36PVA    H84 6090   1.086   1.203   7.337  1.8771  2.8969  0.3530
   36PVA    C43 6091   0.959   1.196   7.519  0.7519 -0.3514 -0.9232
   36PVA    H85 6092   0.850   1.202   7.503  0.6083  2.6801  0.3985
   36PVA    H86 6093   0.972   1.268   7.600 -1.5236 -0.9534  0.0509
   36PVA    C44 6094   0.994   1.055   7.531 -0.1588  0.6594  0.4105
   36PVA    H87 6095   1.012   1.023   7.427 -0.9655 -0.6328  0.6462
   36PVA    O15 6096   1.118   1.042   7.588 -0.1917  0.8332  0.0881
   36PVA    H88 6097   1.133   0.946   7.601  1.5978  1.2013  1.1275
   36PVA    C45 6098   0.902   0.936   7.591  0.1509  1.1863 -0.2805
   36PVA    H89 6099   0.802   0.938   7.545  1.4084 -1.5852 -3.5302
   36PVA    H90 6100   0.862   0.928   7.693 -2.0847 -4.1183 -1.2207
   36PVA    C46 6101   0.962   0.790   7.551 -0.8531  0.2527 -0.6128
   36PVA    H91 6102   0.872   0.727   7.555 -1.4318  1.0427  2.9908
   36PVA    H92 6103   0.997   0.799   7.448 -0.5575  0.5340 -0.4907
   36PVA    C47 6104   1.059   0.719   7.648  0.0484 -0.1571  1.5313
   36PVA    H93 6105   1.018   0.735   7.748  0.2166 -0.6690  1.6828
   36PVA    O16 6106   1.186   0.790   7.641  0.6431 -0.1134 -0.1134
   36PVA    H94 6107   1.250   0.773   7.570  0.8404  0.8371 -0.1773
   36PVA    C48 6108   1.065   0.564   7.644  0.4489  0.0781  0.5453
   36PVA    H95 6109   0.975   0.520   7.689 -0.9113 -0.6066 -2.5838
   36PVA    H96 6110   1.066   0.531   7.540  0.4905  2.2685 -0.2089
   36PVA    C49 6111   1.184   0.503   7.715 -0.2931  1.2141  0.4328
   36PVA    H97 6112   1.200   0.566   7.804 -0.7083  1.3192  0.4349
   36PVA    H98 6113   1.258   0.513   7.635 -0.7752 -1.0247 -0.3658
   36PVA    C50 6114   1.161   0.360   7.780  0.6587 -0.3305 -0.1180
   36PVA    H99 6115   1.109   0.383   7.874  2.3692  2.1167  0.3422
   36PVA    O17 6116   1.075   0.274   7.690 -0.6158  0.0486 -0.1838
   36PVA   H100 6117   1.138   0.240   7.623 -0.7645 -0.9919  0.1753
   36PVA    C51 6118   1.287   0.283   7.832 -0.0249 -0.6993  1.1949
   36PVA   H101 6119   1.284   0.184   7.783  2.5507 -0.7008  0.8888
   36PVA   H102 6120   1.361   0.353   7.792  1.5891 -3.7121 -1.6251
   37PVA     C1 6121   7.369   3.452   1.546 -1.0309 -1.0155  0.7825
   37PVA     H1 6122   7.351   3.559   1.561 -0.9238 -0.7407 -0.8615
   37PVA     H2 6123   7.472   3.442   1.509 -0.9682 -0.1580  0.6943
   37PVA     C2 6124   7.349   3.363   1.670 -0.9481 -0.9156  1.0468
   37PVA     H3 6125   7.349   3.256   1.646 -0.7606 -1.3405  2.8311
   37PVA     O1 6126   7.218   3.390   1.708 -0.0084  0.4503 -0.0032
   37PVA     H4 6127   7.191   3.459   1.645 -1.1324 -0.4766 -0.5706
   37PVA     C3 6128   7.462   3.394   1.770  0.7423  0.0702 -0.6200
   37PVA     H5 6129   7.558   3.365   1.725  0.9172 -1.1081  0.4488
   37PVA     H6 6130   7.449   3.328   1.857 -3.6740 -0.9583 -1.8225
   37PVA     C4 6131   7.454   3.533   1.836  0.3168  0.5740 -0.1600
   37PVA     H7 6132   7.554   3.580   1.838  1.5145 -1.7726  2.4835
   37PVA     H8 6133   7.406   3.607   1.770  0.1719  0.5745 -0.0520
   37PVA     C5 6134   7.385   3.544   1.967  1.3162  0.6567 -0.6986
   37PVA     H9 6135   7.456   3.498   2.037  1.1730  0.3084 -0.7786
   37PVA     O2 6136   7.254   3.474   1.973 -0.6419  0.4772  0.3365
   37PVA    H10 6137   7.245   3.419   1.893 -1.2296  0.0806  0.6764
   37PVA     C6 6138   7.367   3.692   2.015  0.0487 -0.7984  0.9982
   37PVA    H11 6139   7.457   3.722   2.070 -0.2608 -0.0878  1.1248
   37PVA    H12 6140   7.342   3.758   1.932  0.5364 -4.7329 -2.6406
   37PVA     C7 6141   7.250   3.710   2.125  0.6989 -0.0212  0.0794
   37PVA    H13 6142   7.283   3.682   2.226  1.1257  1.0029  0.2386
   37PVA    H14 6143   7.165   3.646   2.100 -1.1075  0.4647  4.1486
   37PVA     C8 6144   7.193   3.855   2.134 -0.9976 -0.3106  0.4134
   37PVA    H15 6145   7.184   3.906   2.037  3.3103  2.4936  1.1704
   37PVA     O3 6146   7.311   3.936   2.179  0.9040 -0.4595 -1.1189
   37PVA    H16 6147   7.387   3.887   2.144  2.9227  1.3403  0.5142
   37PVA     C9 6148   7.077   3.876   2.241 -0.6827  1.1097  0.1449
   37PVA    H17 6149   6.995   3.821   2.192 -3.0284  3.7745  0.8686
   37PVA    H18 6150   7.122   3.814   2.320  1.1533 -0.9384 -2.3283
   37PVA    C10 6151   7.050   4.019   2.264 -0.0824  0.7804  0.4633
   37PVA    H19 6152   7.056   4.069   2.166 -1.4790  1.3653  0.6595
   37PVA    H20 6153   7.122   4.054   2.339 -4.0095  1.0710  4.4786
   37PVA    C11 6154   6.904   4.041   2.323 -0.1708  0.3543  0.1752
   37PVA    H21 6155   6.906   4.150   2.319  2.8057  0.7121  4.8822
   37PVA     O4 6156   6.795   4.000   2.244  0.1735 -0.1722 -0.8891
   37PVA    H22 6157   6.818   3.921   2.192 -2.0873 -2.3226  1.1730
   37PVA    C12 6158   6.889   3.981   2.465 -0.8718  0.6691 -0.4015
   37PVA    H23 6159   6.841   3.882   2.470 -3.5578  1.4257 -5.0053
   37PVA    H24 6160   6.992   3.965   2.499  0.7468  3.2305 -3.6295
   37PVA    C13 6161   6.821   4.084   2.563 -0.0130 -0.4179 -0.2907
   37PVA    H25 6162   6.726   4.097   2.510  0.1057 -0.2973 -0.4729
   37PVA    H26 6163   6.853   4.186   2.541 -0.4010  0.0285  1.1364
   37PVA    C14 6164   6.810   4.040   2.716 -0.4993 -0.3309 -0.3864
   37PVA    H27 6165   6.727   4.081   2.774  0.5052  2.2996 -0.6948
   37PVA     O5 6166   6.923   4.079   2.782 -0.5124 -0.4427 -0.2662
   37PVA    H28 6167   6.980   4.008   2.748 -0.5181  0.8342 -3.2689
   37PVA    C15 6168   6.793   3.882   2.762  0.5954 -1.0838  0.3651
   37PVA    H29 6169   6.889   3.829   2.751 -0.6285 -4.5788  3.8890
   37PVA    H30 6170   6.723   3.839   2.689 -1.3427 -1.3184  2.2604
   37PVA    C16 6171   6.712   3.872   2.890 -0.9428  0.1111 -0.3985
   37PVA    H31 6172   6.776   3.927   2.960  0.7913 -3.5141  1.1564
   37PVA    H32 6173   6.619   3.930   2.882 -0.6994  0.7236  0.9143
   37PVA    C17 6174   6.699   3.727   2.953 -0.2105 -0.8549 -0.2161
   37PVA    H33 6175   6.621   3.671   2.901 -3.4300  4.2921 -1.7321
   37PVA     O6 6176   6.827   3.671   2.974 -0.8732 -0.5570  0.0973
   37PVA    H34 6177   6.868   3.735   2.914  1.1841 -1.8568  0.0395
   37PVA    C18 6178   6.632   3.750   3.092  1.3809  0.4610 -1.1490
   37PVA    H35 6179   6.647   3.847   3.140 -0.5859 -1.5122  4.1258
   37PVA    H36 6180   6.523   3.754   3.079  0.5339 -0.1584  3.8922
   37PVA    C19 6181   6.651   3.637   3.189  0.4156 -0.2201  0.1444
   37PVA    H37 6182   6.752   3.646   3.231  0.1630  1.9015  0.4171
   37PVA    H38 6183   6.646   3.536   3.148 -1.9614 -0.5053  0.9647
   37PVA    C20 6184   6.544   3.650   3.311  0.7155  0.3603 -0.7370
   37PVA    H39 6185   6.447   3.673   3.265 -0.8653 -2.9361  0.6075
   37PVA     O7 6186   6.588   3.755   3.392 -0.4094 -0.1448 -0.0991
   37PVA    H40 6187   6.665   3.715   3.433 -0.6827 -0.1668  0.3986
   37PVA    C21 6188   6.545   3.523   3.403  0.7588 -0.2562  0.0853
   37PVA    H41 6189   6.647   3.485   3.397  0.9406  0.0665  0.9460
   37PVA    H42 6190   6.490   3.442   3.354  0.0572  0.2291  0.0582
   37PVA    C22 6191   6.494   3.533   3.554  0.2958  0.1205 -0.2667
   37PVA    H43 6192   6.555   3.614   3.596  0.4684  1.3981 -2.7238
   37PVA    H44 6193   6.391   3.572   3.557  0.3517  0.2596 -0.1470
   37PVA    C23 6194   6.507   3.400   3.631 -0.1871 -0.0424 -0.1226
   37PVA    H45 6195   6.417   3.344   3.604 -1.4119  1.5631  0.4867
   37PVA     O8 6196   6.625   3.327   3.605 -0.3805 -0.2174 -0.1666
   37PVA    H46 6197   6.608   3.311   3.510  2.5138  1.9435 -1.1992
   37PVA    C24 6198   6.470   3.416   3.784 -0.3793 -0.6318  1.4120
   37PVA    H47 6199   6.535   3.486   3.837 -0.2617 -1.2143  2.0560
   37PVA    H48 6200   6.372   3.463   3.803 -0.4053  0.7560 -1.6885
   37PVA    C25 6201   6.476   3.286   3.864 -1.2012 -0.1972 -0.7992
   37PVA    H49 6202   6.577   3.244   3.866 -0.9328  0.4078  1.6926
   37PVA    H50 6203   6.457   3.314   3.968 -1.1578 -1.2439 -0.5051
   37PVA    C26 6204   6.373   3.176   3.831  1.4503 -0.4694  0.4378
   37PVA    H51 6205   6.411   3.117   3.748  0.2696  0.3351 -0.7140
   37PVA     O9 6206   6.244   3.242   3.801  0.4183 -0.0065  0.0155
   37PVA    H52 6207   6.216   3.310   3.864  2.1669  0.1055  0.7317
   37PVA    C27 6208   6.356   3.084   3.955  0.9953  0.2785 -0.2257
   37PVA    H53 6209   6.340   3.129   4.054  2.7824 -3.2087  1.8759
   37PVA    H54 6210   6.456   3.039   3.968  0.4917 -0.0272  4.0410
   37PVA    C28 6211   6.249   2.964   3.956 -0.2713 -0.2717  0.7036
   37PVA    H55 6212   6.282   2.905   3.870  0.3773 -1.1286  1.5132
   37PVA    H56 6213   6.270   2.886   4.030 -4.2173 -1.2258  1.0311
   37PVA    C29 6214   6.095   3.006   3.962 -0.5409 -0.7732  0.9964
   37PVA    H57 6215   6.069   3.101   4.010  1.1642 -1.3143  3.1496
   37PVA    O10 6216   6.056   3.017   3.821 -0.1740 -0.1219  0.0311
   37PVA    H58 6217   6.128   3.077   3.793  0.8273 -0.1837  2.2236
   37PVA    C30 6218   6.007   2.896   4.019  0.7265  0.1182  0.3304
   37PVA    H59 6219   5.901   2.912   3.996 -0.4797 -0.2865  4.7376
   37PVA    H60 6220   6.023   2.799   3.971 -4.1063 -0.5816 -0.3675
   37PVA    C31 6221   6.022   2.882   4.180 -1.0790  0.1147  0.0336
   37PVA    H61 6222   6.038   2.985   4.213  0.8821 -0.1024 -0.1040
   37PVA    H62 6223   6.119   2.839   4.207  0.3355  2.3953 -1.1632
   37PVA    C32 6224   5.913   2.793   4.247 -0.6460 -1.1550  0.2546
   37PVA    H63 6225   5.915   2.691   4.207  2.5063 -0.9350 -0.3676
   37PVA    O11 6226   5.797   2.861   4.230 -0.5867 -0.6514 -0.3679
   37PVA    H64 6227   5.811   2.903   4.143  2.9729  1.4338  1.0023
   37PVA    C33 6228   5.932   2.776   4.398  0.1850  0.8277 -0.1182
   37PVA    H65 6229   6.000   2.692   4.419 -0.0705  0.7240  0.3081
   37PVA    H66 6230   5.833   2.759   4.441  0.8439  2.1209  2.0647
   37PVA    C34 6231   6.009   2.879   4.473  0.1509  0.1952  0.0635
   37PVA    H67 6232   6.106   2.886   4.422  0.8078  0.8937  1.3476
   37PVA    H68 6233   5.959   2.975   4.451 -1.9250 -0.9967 -0.7143
   37PVA    C35 6234   6.025   2.848   4.627  0.1979  0.0205  0.7843
   37PVA    H69 6235   6.120   2.798   4.649  0.4716 -0.0827 -0.5538
   37PVA    O12 6236   5.912   2.769   4.674 -0.1406 -0.2996 -0.4518
   37PVA    H70 6237   5.919   2.674   4.655 -1.9746 -0.0682 -2.7324
   37PVA    C36 6238   6.040   2.983   4.709 -0.9825  1.0408  1.3448
   37PVA    H71 6239   5.951   3.046   4.695 -4.0042 -3.4279 -3.1737
   37PVA    H72 6240   6.114   3.049   4.663  1.4404 -1.0117  2.0281
   37PVA    C37 6241   6.100   2.958   4.846  0.8483 -0.0785  0.0772
   37PVA    H73 6242   6.148   2.860   4.850  4.3616  1.4422 -0.8657
   37PVA    H74 6243   6.192   3.014   4.866  0.9180  0.1393 -0.8353
   37PVA    C38 6244   5.996   2.992   4.958 -0.6034 -0.4526  0.9220
   37PVA    H75 6245   5.903   2.968   4.906  0.0636 -0.6673 -0.1910
   37PVA    O13 6246   6.016   2.924   5.070 -0.9756  0.6489 -2.2343
   37PVA    H76 6247   5.931   2.881   5.091 -1.2158 -0.3991 -5.0125
   37PVA    C39 6248   5.998   3.148   4.996  0.2914  0.3011  1.1211
   37PVA    H77 6249   5.939   3.202   4.920 -0.2557 -2.8294 -0.8377
   37PVA    H78 6250   6.100   3.182   4.979  0.1129  0.4965  0.4270
   37PVA    C40 6251   5.957   3.189   5.137 -1.3569 -0.6248 -1.0867
   37PVA    H79 6252   5.850   3.189   5.160 -1.1602  4.3825  1.1680
   37PVA    H80 6253   6.008   3.126   5.210  0.0181  2.0671  0.4385
   37PVA    C41 6254   6.001   3.330   5.175 -0.0400 -0.9330 -0.5008
   37PVA    H81 6255   6.108   3.327   5.199 -0.5464  0.6705  2.4025
   37PVA    O14 6256   5.997   3.417   5.057 -0.5527  0.9775 -0.2799
   37PVA    H82 6257   5.965   3.348   4.995 -2.3774  2.6251 -1.2866
   37PVA    C42 6258   5.928   3.397   5.296  0.2549  0.1328 -0.2328
   37PVA    H83 6259   5.961   3.334   5.379  2.8661 -0.5090 -1.6651
   37PVA    H84 6260   5.818   3.392   5.301  0.2960 -2.0192 -0.6917
   37PVA    C43 6261   5.951   3.550   5.327 -0.3136 -0.2300  0.8953
   37PVA    H85 6262   5.918   3.612   5.242 -0.4960  2.0406  2.5411
   37PVA    H86 6263   6.057   3.573   5.342 -0.5919  0.0281  2.5663
   37PVA    C44 6264   5.865   3.603   5.446  1.5572  0.3200 -0.5913
   37PVA    H87 6265   5.841   3.530   5.524 -2.7237  0.4566 -1.4823
   37PVA    O15 6266   5.732   3.645   5.385 -0.3687 -0.4579 -0.6063
   37PVA    H88 6267   5.692   3.710   5.446  0.9234 -0.4191  0.2591
   37PVA    C45 6268   5.925   3.721   5.531  0.1384 -0.2412  0.8598
   37PVA    H89 6269   5.929   3.815   5.475  2.5544  1.1172  3.0864
   37PVA    H90 6270   6.025   3.679   5.548  0.8052  1.5806  1.7040
   37PVA    C46 6271   5.844   3.752   5.656 -0.0293 -1.3049  0.8727
   37PVA    H91 6272   5.787   3.845   5.647  3.4997  0.8568 -1.6322
   37PVA    H92 6273   5.767   3.675   5.674 -0.0357 -1.0141  2.1583
   37PVA    C47 6274   5.936   3.771   5.780 -0.0076  0.3779 -0.2428
   37PVA    H93 6275   5.988   3.868   5.783  2.5069 -0.8972  0.3685
   37PVA    O16 6276   6.044   3.675   5.767 -0.5577 -0.1246 -0.7334
   37PVA    H94 6277   6.064   3.630   5.852  2.1821 -2.7419 -2.5455
   37PVA    C48 6278   5.870   3.750   5.920  0.8823 -0.2969 -0.1070
   37PVA    H95 6279   5.787   3.822   5.921  3.1966  2.5724  0.7107
   37PVA    H96 6280   5.831   3.647   5.921  1.5950 -0.5883 -0.9768
   37PVA    C49 6281   5.947   3.767   6.051  0.3419  0.8525 -0.0371
   37PVA    H97 6282   6.044   3.717   6.036  1.2826  2.4439  0.4345
   37PVA    H98 6283   5.960   3.873   6.073  0.0686  0.4372  2.4311
   37PVA    C50 6284   5.859   3.696   6.160 -1.1755  0.4893 -0.3389
   37PVA    H99 6285   5.758   3.730   6.134 -1.6328  0.4562  1.3322
   37PVA    O17 6286   5.877   3.561   6.150 -0.0860 -0.8380  0.3013
   37PVA   H100 6287   5.906   3.531   6.237  1.3185 -2.4560 -0.6668
   37PVA    C51 6288   5.905   3.747   6.304  0.8751  0.5394 -0.4218
   37PVA   H101 6289   5.913   3.856   6.293  3.5619  0.2836 -1.8209
   37PVA   H102 6290   6.007   3.709   6.320  0.9760 -0.0339 -2.2509
   38PVA     C1 6291   0.815   7.256   0.597 -0.7600  0.8791  0.1416
   38PVA     H1 6292   0.786   7.188   0.516  3.5438 -1.9840  0.6937
   38PVA     H2 6293   0.753   7.344   0.577 -0.9794  0.3836 -1.5028
   38PVA     C2 6294   0.801   7.194   0.735 -0.8346  0.4447 -1.0855
   38PVA     H3 6295   0.728   7.264   0.777  1.5624  1.7705  1.1832
   38PVA     O1 6296   0.928   7.195   0.812  0.5381 -0.0096  0.3337
   38PVA     H4 6297   0.918   7.255   0.889  2.4383 -1.3500  1.7052
   38PVA     C3 6298   0.757   7.047   0.731 -0.0555  0.1029  0.5122
   38PVA     H5 6299   0.751   7.017   0.836 -0.0550 -4.1417 -0.5209
   38PVA     H6 6300   0.831   6.992   0.671 -0.7198 -0.1247 -0.1213
   38PVA     C4 6301   0.625   7.008   0.654 -0.5245 -0.1765  0.8136
   38PVA     H7 6302   0.550   7.086   0.634 -1.0676 -0.7253  0.6737
   38PVA     H8 6303   0.660   6.991   0.551  3.5888  0.5041  1.9180
   38PVA     C5 6304   0.568   6.871   0.699  0.8674  0.5548 -1.0733
   38PVA     H9 6305   0.648   6.796   0.705 -1.2003 -1.8181 -1.2994
   38PVA     O2 6306   0.495   6.882   0.828  0.5240  0.0038 -0.1034
   38PVA    H10 6307   0.471   6.797   0.870  1.5616 -0.2785 -0.0366
   38PVA     C6 6308   0.455   6.804   0.615  0.9839  0.0449  0.9341
   38PVA    H11 6309   0.381   6.884   0.600  1.5088  0.2213 -0.9557
   38PVA    H12 6310   0.495   6.783   0.515 -4.1005 -0.6261 -1.2502
   38PVA     C7 6311   0.401   6.656   0.671  0.2821  1.0204  0.6995
   38PVA    H13 6312   0.316   6.669   0.739 -1.4370 -0.0082 -1.1341
   38PVA    H14 6313   0.480   6.608   0.730 -2.6538 -0.4760  3.7718
   38PVA     C8 6314   0.342   6.556   0.571  0.3973 -0.2960  0.3152
   38PVA    H15 6315   0.338   6.458   0.620 -2.0713 -2.3483 -3.5164
   38PVA     O3 6316   0.436   6.554   0.462  1.1150 -0.0993  0.4255
   38PVA    H16 6317   0.508   6.492   0.482  2.7805  1.1667 -1.3696
   38PVA     C9 6318   0.207   6.578   0.518  0.1932 -0.4161  0.4312
   38PVA    H17 6319   0.222   6.666   0.454  1.3255 -1.7158 -1.1968
   38PVA    H18 6320   0.129   6.610   0.588 -2.0226 -1.6926 -1.3362
   38PVA    C10 6321   0.143   6.461   0.445 -0.1319 -0.0432  0.5155
   38PVA    H19 6322   0.048   6.498   0.404 -0.5262 -2.6622 -1.1914
   38PVA    H20 6323   0.214   6.435   0.365 -0.0695 -5.8673  1.9942
   38PVA    C11 6324   0.118   6.333   0.514  0.4659  0.3398  0.0553
   38PVA    H21 6325   0.213   6.292   0.550  2.3182  3.8871 -0.2904
   38PVA     O4 6326   0.042   6.374   0.622  0.1269 -0.8467  0.5569
   38PVA    H22 6327   7.714   6.367   0.596 -0.1110  0.4640  0.9923
   38PVA    C12 6328   0.071   6.212   0.430 -0.2069  0.0347  0.0873
   38PVA    H23 6329   7.728   6.214   0.419 -0.3016  0.0277  0.9153
   38PVA    H24 6330   0.121   6.218   0.333  0.0763 -3.3955 -0.0866
   38PVA    C13 6331   0.122   6.064   0.472  0.7492  0.3702  0.5940
   38PVA    H25 6332   0.228   6.064   0.503  1.2041 -2.5061 -0.6019
   38PVA    H26 6333   0.064   6.047   0.564 -2.5650  0.5849 -1.3211
   38PVA    C14 6334   0.096   5.955   0.368 -0.1173  0.4201 -0.2529
   38PVA    H27 6335   0.173   5.975   0.292 -0.9590  1.9302 -0.7503
   38PVA     O5 6336   7.726   5.960   0.314 -0.4806  0.2175 -0.2095
   38PVA    H28 6337   7.709   6.053   0.291 -2.9193 -0.7593 -2.9674
   38PVA    C15 6338   0.120   5.811   0.405  0.5685 -1.1488 -0.2913
   38PVA    H29 6339   0.222   5.810   0.447 -0.1069  5.7473  2.7996
   38PVA    H30 6340   0.060   5.784   0.492  0.7179  2.4935  1.1218
   38PVA    C16 6341   0.124   5.698   0.292 -0.3664 -0.3697 -0.0970
   38PVA    H31 6342   0.203   5.716   0.218  2.0098  2.9449  2.9141
   38PVA    H32 6343   0.167   5.613   0.345  3.9914 -0.6417 -3.4787
   38PVA    C17 6344   0.008   5.638   0.219  0.4237 -0.6001 -0.6289
   38PVA    H33 6345   0.051   5.559   0.155 -0.2435 -3.0185  1.7332
   38PVA     O6 6346   7.692   5.585   0.323 -0.1854  0.0372 -0.1370
   38PVA    H34 6347   7.598   5.604   0.303  0.0561  0.8686 -0.5196
   38PVA    C18 6348   7.697   5.727   0.117  0.3637 -0.3830  0.4165
   38PVA    H35 6349   7.592   5.698   0.127  0.9796 -2.6723  0.9099
   38PVA    H36 6350   7.715   5.834   0.134 -0.2687  0.2029 -2.1053
   38PVA    C19 6351   7.729   5.693   8.058  0.9385 -0.1937 -0.0033
   38PVA    H37 6352   7.692   5.590   8.049  1.3311 -0.2634 -0.9695
   38PVA    H38 6353   0.070   5.700   8.033  0.9528  0.5180  0.2258
   38PVA    C20 6354   7.637   5.773   7.952 -0.4889 -0.3278  0.3082
   38PVA    H39 6355   7.542   5.721   7.965  0.2215 -1.2860  1.8908
   38PVA     O7 6356   7.626   5.915   7.981 -0.4783 -0.4909 -0.1605
   38PVA    H40 6357   7.637   5.921   8.078  0.6524  1.2563 -0.3603
   38PVA    C21 6358   7.688   5.765   7.802  0.9903 -0.2387 -0.8788
   38PVA    H41 6359   7.729   5.663   7.804  0.1737 -0.5781  1.6191
   38PVA    H42 6360   0.013   5.827   7.802  1.4195 -0.7984  0.9660
   38PVA    C22 6361   7.604   5.798   7.680  0.1977 -0.3459  0.2450
   38PVA    H43 6362   7.534   5.713   7.673  0.6792 -0.6544 -1.2163
   38PVA    H44 6363   7.534   5.880   7.702  1.1775  0.3959  0.6424
   38PVA    C23 6364   7.676   5.804   7.546 -0.2505  0.9778  0.3067
   38PVA    H45 6365   7.754   5.881   7.543  2.0661 -1.2204  0.6294
   38PVA     O8 6366   7.729   5.675   7.517 -0.5246  0.9405  0.0333
   38PVA    H46 6367   7.646   5.623   7.511 -0.6725  0.7296  2.8038
   38PVA    C24 6368   7.561   5.852   7.439 -1.5890 -0.8925 -0.3918
   38PVA    H47 6369   7.486   5.901   7.502 -2.2434 -3.2496  0.7736
   38PVA    H48 6370   7.607   5.934   7.383  1.8514 -2.0791  0.4549
   38PVA    C25 6371   7.497   5.764   7.324 -0.0606  0.9606  0.6308
   38PVA    H49 6372   7.567   5.760   7.239 -1.6159 -1.7688 -0.6315
   38PVA    H50 6373   7.410   5.822   7.290  1.1308  0.5929 -3.5910
   38PVA    C26 6374   7.445   5.622   7.359 -0.1527 -1.1017 -0.1534
   38PVA    H51 6375   7.507   5.532   7.347  0.5285 -0.3939 -2.6726
   38PVA     O9 6376   7.392   5.626   7.486 -0.1439 -0.0159 -1.4757
   38PVA    H52 6377   7.337   5.707   7.487 -0.7719 -0.4237 -2.0851
   38PVA    C27 6378   7.314   5.609   7.273  0.8424  0.8460  0.7759
   38PVA    H53 6379   7.309   5.646   7.170 -4.0595  5.9676  2.3560
   38PVA    H54 6380   7.239   5.671   7.324  1.3911  3.5540 -1.4426
   38PVA    C28 6381   7.240   5.462   7.274 -0.7768  0.4464  0.7450
   38PVA    H55 6382   7.228   5.409   7.370 -2.4941 -0.4984  0.0543
   38PVA    H56 6383   7.143   5.488   7.230  0.6262  0.4965 -2.5711
   38PVA    C29 6384   7.294   5.356   7.168  1.1467  0.2821  0.1349
   38PVA    H57 6385   7.395   5.324   7.199  0.6543 -1.4542  0.0746
   38PVA    O10 6386   7.282   5.413   7.031  0.0943 -0.4146  0.6990
   38PVA    H58 6387   7.206   5.380   6.980 -0.1174 -1.7521  1.8541
   38PVA    C30 6388   7.210   5.230   7.167  0.7674  0.3516 -0.0521
   38PVA    H59 6389   7.230   5.174   7.259 -3.2755  0.2677  0.9947
   38PVA    H60 6390   7.101   5.245   7.176  0.7721  1.1237 -1.0354
   38PVA    C31 6391   7.227   5.146   7.038 -0.0034 -0.3418  0.5926
   38PVA    H61 6392   7.180   5.188   6.948  0.6622 -2.7344 -0.9445
   38PVA    H62 6393   7.333   5.125   7.019 -0.5419 -3.6964  0.7112
   38PVA    C32 6394   7.169   5.005   7.047  0.4581  0.9610  0.3966
   38PVA    H63 6395   7.221   4.965   7.135  0.3730  0.0476  0.0486
   38PVA    O11 6396   7.216   4.925   6.941  1.1140  0.8371 -0.4668
   38PVA    H64 6397   7.226   4.841   6.989 -3.6197 -0.8446 -1.8251
   38PVA    C33 6398   7.014   4.984   7.056  0.7117  0.7279 -0.0756
   38PVA    H65 6399   6.980   4.966   6.954  1.9544 -3.6424  0.0828
   38PVA    H66 6400   6.977   5.082   7.090  1.1808  0.2823  1.8485
   38PVA    C34 6401   6.949   4.887   7.170 -0.7059 -0.1400 -0.2922
   38PVA    H67 6402   6.993   4.904   7.269  2.1305  1.7619 -1.7296
   38PVA    H68 6403   6.986   4.786   7.149  0.9054 -0.1206  2.0934
   38PVA    C35 6404   6.796   4.881   7.173 -0.1570  0.6476 -0.9782
   38PVA    H69 6405   6.767   4.977   7.216 -1.3328 -0.3315  0.5443
   38PVA    O12 6406   6.741   4.855   7.041 -0.1246 -0.1087 -0.4262
   38PVA    H70 6407   6.720   4.761   7.028  0.5959  0.0625 -3.6382
   38PVA    C36 6408   6.766   4.764   7.278  2.1363  0.1297 -0.5997
   38PVA    H71 6409   6.772   4.805   7.380 -1.2051  0.9823 -0.6075
   38PVA    H72 6410   6.843   4.687   7.281  1.2695 -0.7338  2.0141
   38PVA    C37 6411   6.626   4.704   7.267  0.5092  1.0216  0.3563
   38PVA    H73 6412   6.563   4.786   7.229  0.7902  0.1769 -2.0715
   38PVA    H74 6413   6.605   4.639   7.181  1.2228 -1.4480  1.9570
   38PVA    C38 6414   6.584   4.617   7.396  0.1145 -0.1464 -0.5009
   38PVA    H75 6415   6.577   4.691   7.476  3.5791  1.8612 -1.8311
   38PVA    O13 6416   6.691   4.524   7.418 -0.6940 -0.2108 -0.0873
   38PVA    H76 6417   6.695   4.502   7.512  3.6662  2.5300  0.6552
   38PVA    C39 6418   6.444   4.543   7.358  0.5205 -0.1483 -0.6401
   38PVA    H77 6419   6.430   4.502   7.257  1.2018  0.6249 -1.0620
   38PVA    H78 6420   6.387   4.633   7.330 -0.3140 -0.5224 -0.1669
   38PVA    C40 6421   6.376   4.477   7.476 -0.6259  0.6652  0.2873
   38PVA    H79 6422   6.349   4.555   7.548 -0.8525 -0.2261  1.1921
   38PVA    H80 6423   6.446   4.424   7.542 -0.2683  1.8212  0.8606
   38PVA    C41 6424   6.245   4.402   7.439 -0.4406  0.7985 -0.7501
   38PVA    H81 6425   6.223   4.450   7.342  5.1415 -0.8947 -3.2519
   38PVA    O14 6426   6.270   4.260   7.424  0.1856  1.0497 -0.8179
   38PVA    H82 6427   6.268   4.243   7.328 -0.0060 -1.4070 -0.4512
   38PVA    C42 6428   6.130   4.423   7.550 -0.1494 -0.7516  0.9053
   38PVA    H83 6429   6.188   4.422   7.643  2.2809  0.2213 -0.5148
   38PVA    H84 6430   6.077   4.518   7.538  0.7116 -0.3478  0.2635
   38PVA    C43 6431   6.023   4.312   7.545 -0.2068  0.6377  0.0727
   38PVA    H85 6432   6.081   4.220   7.560 -0.3326  0.5128 -0.2059
   38PVA    H86 6433   5.953   4.319   7.629  3.1422  1.3024  3.0276
   38PVA    C44 6434   5.954   4.323   7.412  0.5261 -0.7270 -0.5785
   38PVA    H87 6435   6.009   4.363   7.326  0.6957 -2.4266 -1.3079
   38PVA    O15 6436   5.840   4.398   7.442 -0.2424  0.3853 -0.2984
   38PVA    H88 6437   5.836   4.412   7.539  1.7701 -3.5201  0.5485
   38PVA    C45 6438   5.898   4.187   7.358  0.1022 -0.1975 -0.5170
   38PVA    H89 6439   5.829   4.135   7.426  0.4955  1.7271  1.4695
   38PVA    H90 6440   5.988   4.126   7.344 -0.8968 -1.5443 -1.3103
   38PVA    C46 6441   5.831   4.196   7.224  0.6273 -0.7751  1.2728
   38PVA    H91 6442   5.758   4.276   7.204 -0.0078 -1.9421 -1.7676
   38PVA    H92 6443   5.899   4.234   7.146 -0.0721  2.6252  2.1746
   38PVA    C47 6444   5.793   4.055   7.172  0.6189  1.4651  0.0621
   38PVA    H93 6445   5.867   3.979   7.198 -0.8139  0.7883  2.4916
   38PVA    O16 6446   5.657   4.038   7.242 -0.4865 -0.2007 -0.0839
   38PVA    H94 6447   5.679   3.981   7.318 -1.8591 -0.7062 -0.0432
   38PVA    C48 6448   5.764   4.048   7.022 -0.5313  0.2435 -0.6733
   38PVA    H95 6449   5.689   4.123   6.994 -0.3238  0.3116 -1.0590
   38PVA    H96 6450   5.858   4.045   6.965  1.1525  0.5476  1.8915
   38PVA    C49 6451   5.701   3.910   6.990  0.2151  1.3009  0.3442
   38PVA    H97 6452   5.605   3.913   7.042 -1.2964  0.1471 -2.1726
   38PVA    H98 6453   5.767   3.831   7.028  0.0656 -0.6026 -2.9566
   38PVA    C50 6454   5.678   3.870   6.839  0.8493 -1.2137 -0.7421
   38PVA    H99 6455   5.590   3.805   6.845 -1.7862  1.9576 -2.0033
   38PVA    O17 6456   5.656   3.976   6.753 -0.2216 -0.1286  0.4642
   38PVA   H100 6457   5.565   4.002   6.730  0.3307  0.3652 -1.3614
   38PVA    C51 6458   5.798   3.789   6.792 -0.6140  0.6230  0.1456
   38PVA   H101 6459   5.843   3.728   6.871  0.9485  0.8810 -0.5120
   38PVA   H102 6460   5.869   3.870   6.771  0.4117 -0.0051  1.1186
   39PVA     C1 6461   1.254   7.128   0.385 -0.6011 -0.4084 -0.7756
   39PVA     H1 6462   1.196   7.035   0.389  4.5003 -3.9631  0.9966
   39PVA     H2 6463   1.245   7.156   0.279 -0.8011  0.9559 -0.4176
   39PVA     C2 6464   1.391   7.074   0.436  0.1401  0.9267 -0.0870
   39PVA     H3 6465   1.465   7.155   0.446  2.8578 -1.3788 -0.0478
   39PVA     O1 6466   1.423   7.009   0.313 -0.5282  1.1014 -0.1645
   39PVA     H4 6467   1.520   7.001   0.316 -0.2783  0.4680 -4.0734
   39PVA     C3 6468   1.393   6.972   0.557  0.6144 -0.1171  0.2286
   39PVA     H5 6469   1.376   7.032   0.648 -4.6181 -1.1199  0.2285
   39PVA     H6 6470   1.313   6.900   0.538 -0.5964  0.7164  1.9010
   39PVA     C4 6471   1.531   6.906   0.562 -0.5713 -0.7314 -0.1752
   39PVA     H7 6472   1.559   6.861   0.466  1.1183  2.4885 -1.3617
   39PVA     H8 6473   1.598   6.993   0.563 -0.3324 -0.8653 -1.6940
   39PVA     C5 6474   1.585   6.818   0.676  0.7873  0.0827 -0.4496
   39PVA     H9 6475   1.621   6.891   0.749  0.1977 -0.6818  0.6178
   39PVA     O2 6476   1.496   6.726   0.710  0.2129 -1.1753 -0.1635
   39PVA    H10 6477   1.441   6.750   0.786 -0.3340  3.7770 -1.7168
   39PVA     C6 6478   1.710   6.743   0.644 -0.5088 -0.7633 -0.6440
   39PVA    H11 6479   1.700   6.639   0.611  1.8994  0.0173 -4.6512
   39PVA    H12 6480   1.751   6.792   0.554  1.9953 -0.1682  0.7165
   39PVA     C7 6481   1.827   6.727   0.743 -0.3567  0.7221  0.1581
   39PVA    H13 6482   1.805   6.654   0.822  3.0550  0.5726  1.1332
   39PVA    H14 6483   1.838   6.825   0.790  1.8308 -0.1689  1.6940
   39PVA     C8 6484   1.957   6.677   0.662 -0.1742  1.3240  0.0900
   39PVA    H15 6485   1.950   6.709   0.557 -2.9351  0.2426 -0.1512
   39PVA     O3 6486   1.973   6.536   0.684  0.3846 -0.6796  0.0941
   39PVA    H16 6487   1.992   6.494   0.599  2.2373 -0.2116  0.2497
   39PVA     C9 6488   2.091   6.727   0.738  0.6996  0.5721  1.0219
   39PVA    H17 6489   2.106   6.692   0.840  0.7057  1.1376  1.2208
   39PVA    H18 6490   2.104   6.835   0.750  2.5093  0.2664  2.1428
   39PVA    C10 6491   2.222   6.682   0.660  0.1289 -0.4068 -0.5570
   39PVA    H19 6492   2.222   6.572   0.658  2.9698 -0.4560 -1.1390
   39PVA    H20 6493   2.208   6.706   0.554  1.5208  2.5136 -0.1688
   39PVA    C11 6494   2.368   6.730   0.703  0.5204 -0.3637 -0.3044
   39PVA    H21 6495   2.355   6.829   0.657 -1.9041 -0.8813 -0.9102
   39PVA     O4 6496   2.356   6.736   0.840  0.2448 -1.3886 -0.4912
   39PVA    H22 6497   2.309   6.657   0.873  2.2990 -0.8926  4.4481
   39PVA    C12 6498   2.493   6.635   0.671  0.0954 -0.0973 -0.1792
   39PVA    H23 6499   2.501   6.568   0.758  2.3540  3.5299  2.6950
   39PVA    H24 6500   2.480   6.567   0.585  2.1496 -1.4569  0.4925
   39PVA    C13 6501   2.644   6.687   0.624 -0.3738 -0.3586  0.2936
   39PVA    H25 6502   2.634   6.721   0.520 -0.3417  2.4016  1.1242
   39PVA    H26 6503   2.686   6.589   0.598 -1.0715 -0.2876 -1.2209
   39PVA    C14 6504   2.748   6.784   0.702 -0.4045  0.0773 -0.2629
   39PVA    H27 6505   2.770   6.712   0.782  0.5600  2.4422  1.7116
   39PVA     O5 6506   2.677   6.887   0.753 -0.3569 -1.1364  0.3451
   39PVA    H28 6507   2.640   6.854   0.837  1.2467 -4.4824 -0.1181
   39PVA    C15 6508   2.882   6.829   0.645  0.6209 -0.4881  0.6559
   39PVA    H29 6509   2.898   6.934   0.675  0.3318  0.8818 -3.3417
   39PVA    H30 6510   2.873   6.823   0.536 -5.5376  0.0296  0.7798
   39PVA    C16 6511   3.004   6.752   0.693 -0.5882  0.2407 -0.6416
   39PVA    H31 6512   3.017   6.764   0.802 -6.1235  1.8620  0.1866
   39PVA    H32 6513   2.978   6.646   0.680  2.1803 -1.1016  2.8815
   39PVA    C17 6514   3.143   6.781   0.632 -0.0880 -0.9223  0.5375
   39PVA    H33 6515   3.135   6.747   0.528 -1.5700 -3.3976  1.3930
   39PVA     O6 6516   3.166   6.918   0.617 -0.1790 -1.2646 -0.5186
   39PVA    H34 6517   3.210   6.935   0.532 -2.1102 -1.0833 -1.5329
   39PVA    C18 6518   3.262   6.708   0.704  0.1855 -0.2491  1.0284
   39PVA    H35 6519   3.243   6.733   0.809  2.8220 -4.2339  2.6932
   39PVA    H36 6520   3.271   6.599   0.693  2.7437 -0.0762  0.6693
   39PVA    C19 6521   3.409   6.751   0.675 -0.8035 -0.4000  0.1114
   39PVA    H37 6522   3.414   6.861   0.678 -1.9123 -0.3642  1.3892
   39PVA    H38 6523   3.424   6.713   0.573  0.3519  3.5307 -1.3691
   39PVA    C20 6524   3.519   6.685   0.766  0.6652  0.2439  0.0957
   39PVA    H39 6525   3.530   6.581   0.733 -0.5730 -0.1059  0.7276
   39PVA     O7 6526   3.491   6.689   0.908  0.2571  0.6012 -0.5652
   39PVA    H40 6527   3.410   6.737   0.932  0.0814 -0.4894  1.1741
   39PVA    C21 6528   3.654   6.767   0.747  0.3582 -0.5569  0.3011
   39PVA    H41 6529   3.637   6.873   0.768 -1.8893 -0.5324 -1.2787
   39PVA    H42 6530   3.693   6.768   0.645  2.1468 -2.6260  0.8981
   39PVA    C22 6531   3.768   6.720   0.849  0.4281  0.4061  0.0616
   39PVA    H43 6532   3.735   6.625   0.892  2.3169 -0.9973 -1.4034
   39PVA    H44 6533   3.850   6.725   0.776  1.0536 -3.1771  0.3262
   39PVA    C23 6534   3.812   6.812   0.966 -0.8156  0.4753  1.1190
   39PVA    H45 6535   3.868   6.753   1.040  2.3769  1.2321 -0.5320
   39PVA     O8 6536   3.703   6.871   1.033 -0.3981  0.1832 -0.0141
   39PVA    H46 6537   3.645   6.930   0.982  1.1786  1.7789 -0.0591
   39PVA    C24 6538   3.916   6.922   0.923 -1.0904 -0.2020  0.4433
   39PVA    H47 6539   3.973   6.897   0.833  1.5003 -0.6503  2.0940
   39PVA    H48 6540   3.843   7.001   0.901 -3.3539 -3.2732 -5.1971
   39PVA    C25 6541   4.016   6.973   1.018  0.6986 -0.3376 -1.0383
   39PVA    H49 6542   4.096   6.897   1.022  4.4797  3.2751 -0.5899
   39PVA    H50 6543   3.967   6.977   1.116 -4.2739 -0.1529 -3.2383
   39PVA    C26 6544   4.090   7.114   0.990  0.1114 -0.6184 -1.0222
   39PVA    H51 6545   4.147   7.121   1.083 -2.3800  0.2480  0.5427
   39PVA     O9 6546   4.013   7.239   0.994  0.0035 -0.1424  0.6118
   39PVA    H52 6547   3.932   7.243   0.941  0.6650  3.4583 -0.3570
   39PVA    C27 6548   4.196   7.138   0.872 -0.1755  0.7106 -0.0510
   39PVA    H53 6549   4.151   7.172   0.778  0.9900 -0.8234 -1.2198
   39PVA    H54 6550   4.228   7.039   0.837  0.5397 -0.2744  3.0715
   39PVA    C28 6551   4.308   7.218   0.913  0.2896 -0.5265 -0.6025
   39PVA    H55 6552   4.271   7.307   0.966 -3.0259 -1.8250 -0.5054
   39PVA    H56 6553   4.355   7.163   0.996  1.8417  2.0468  0.3610
   39PVA    C29 6554   4.431   7.258   0.814 -0.0865 -0.1827 -0.7852
   39PVA    H57 6555   4.479   7.168   0.774 -1.9524 -1.6213  0.0928
   39PVA    O10 6556   4.387   7.340   0.714 -0.1827  0.4989 -0.9196
   39PVA    H58 6557   4.295   7.310   0.705 -0.9707  3.2455 -4.7098
   39PVA    C30 6558   4.532   7.348   0.903 -0.2993 -0.3452 -0.2512
   39PVA    H59 6559   4.471   7.437   0.924  1.2422  0.7766 -0.3527
   39PVA    H60 6560   4.555   7.293   0.995 -3.3329 -1.9362 -0.3313
   39PVA    C31 6561   4.660   7.402   0.830  0.3771 -0.3168  0.5036
   39PVA    H61 6562   4.753   7.368   0.877  0.3812  1.3583  1.7748
   39PVA    H62 6563   4.677   7.368   0.727  4.1496  0.1972  0.8199
   39PVA    C32 6564   4.664   7.557   0.835  0.1317 -0.6164 -0.2379
   39PVA    H63 6565   4.622   7.598   0.928 -0.1346 -2.0282  0.2907
   39PVA    O11 6566   4.564   7.604   0.747 -0.2842 -0.8704  0.2273
   39PVA    H64 6567   4.517   7.525   0.717 -0.1235 -1.5610  1.7072
   39PVA    C33 6568   4.812   7.611   0.823  0.8679 -0.5960  0.9419
   39PVA    H65 6569   4.844   7.568   0.727 -2.6170 -2.7957  0.5970
   39PVA    H66 6570   4.884   7.562   0.890  1.7753 -1.9060 -0.8978
   39PVA    C34 6571   4.834   0.086   0.836 -0.1311  0.1342 -0.6488
   39PVA    H67 6572   4.809   0.130   0.738  0.2103  0.4175 -0.6113
   39PVA    H68 6573   4.754   0.124   0.901  1.2308 -0.0195  1.1894
   39PVA    C35 6574   4.972   0.148   0.878 -0.5361  0.5719  0.6582
   39PVA    H69 6575   5.004   0.064   0.940 -0.6638  0.4760  0.5944
   39PVA    O12 6576   5.050   0.167   0.761 -0.8341 -0.5647 -0.0721
   39PVA    H70 6577   5.138   0.135   0.787  0.6152  1.4325 -2.0702
   39PVA    C36 6578   4.971   0.286   0.958 -0.0864  0.2752 -0.1214
   39PVA    H71 6579   5.012   0.358   0.886 -2.1519 -1.3885 -3.1710
   39PVA    H72 6580   4.865   0.313   0.949  0.6086  4.1229  1.5098
   39PVA    C37 6581   5.049   0.283   1.095  0.1542 -0.4016  0.6133
   39PVA    H73 6582   5.157   0.273   1.081  0.5055  0.5011  2.3420
   39PVA    H74 6583   5.029   0.189   1.149 -0.5411  0.8502  2.6602
   39PVA    C38 6584   5.022   0.406   1.194  0.4558 -0.2854  0.0277
   39PVA    H75 6585   4.962   0.479   1.139  4.1542  0.6910 -3.1510
   39PVA    O13 6586   5.151   0.467   1.219  0.5406  0.0542 -0.3336
   39PVA    H76 6587   5.193   0.427   1.298 -3.2905 -1.7959  1.0267
   39PVA    C39 6588   4.953   0.369   1.333 -0.4137 -0.9260  0.8934
   39PVA    H77 6589   5.047   0.340   1.382  2.4960  2.4826 -2.0968
   39PVA    H78 6590   4.888   0.285   1.308 -2.7440  1.3021 -1.0564
   39PVA    C40 6591   4.878   0.476   1.414 -0.8199 -0.2720 -0.1870
   39PVA    H79 6592   4.841   0.561   1.355 -2.1707  0.6585  1.8658
   39PVA    H80 6593   4.951   0.533   1.474 -3.3985  3.1249 -0.0109
   39PVA    C41 6594   4.781   0.419   1.518  0.2133  0.5845 -0.8112
   39PVA    H81 6595   4.778   0.315   1.481 -1.4192 -0.3040  1.5611
   39PVA    O14 6596   4.849   0.421   1.642 -0.2152 -0.5131 -0.7533
   39PVA    H82 6597   4.816   0.335   1.673 -1.5746  0.7580  1.6282
   39PVA    C42 6598   4.633   0.469   1.527  0.3443  0.7549 -0.1722
   39PVA    H83 6599   4.629   0.544   1.607  0.2837 -1.2300  1.7601
   39PVA    H84 6600   4.607   0.528   1.437  2.6688  0.1723 -1.3094
   39PVA    C43 6601   4.524   0.356   1.547  0.6063 -0.1767 -0.4584
   39PVA    H85 6602   4.477   0.362   1.646  1.5369  1.0032 -0.0544
   39PVA    H86 6603   4.566   0.254   1.549 -1.7115 -1.1700  1.1194
   39PVA    C44 6604   4.395   0.368   1.458  0.2073  0.1904  1.2377
   39PVA    H87 6605   4.435   0.356   1.356  0.4164  1.1698  1.1922
   39PVA    O15 6606   4.337   0.496   1.472 -0.8386 -0.6399 -0.3507
   39PVA    H88 6607   4.369   0.555   1.401  0.1773 -1.3475 -0.5116
   39PVA    C45 6608   4.279   0.270   1.496  0.2023 -0.2207  0.6728
   39PVA    H89 6609   4.227   0.298   1.588  1.2155  1.3059  0.8178
   39PVA    H90 6610   4.333   0.175   1.505  1.2674  0.5578  3.3551
   39PVA    C46 6611   4.174   0.252   1.378 -0.1022 -0.0383 -0.3389
   39PVA    H91 6612   4.166   0.348   1.326 -0.5657 -1.4900 -3.0974
   39PVA    H92 6613   4.225   0.172   1.324  1.1477  0.7151 -0.3086
   39PVA    C47 6614   4.036   0.203   1.429 -0.0891 -0.1808  1.0700
   39PVA    H93 6615   3.979   0.155   1.348 -3.3428  4.0855  0.4631
   39PVA    O16 6616   4.063   0.096   1.532  0.1657 -0.4706  0.7941
   39PVA    H94 6617   4.150   0.058   1.513  0.5047 -2.7583  5.4761
   39PVA    C48 6618   3.969   0.318   1.510 -0.6156  0.6839 -0.6016
   39PVA    H95 6619   4.031   0.358   1.591 -1.4959  1.9970 -0.5359
   39PVA    H96 6620   3.965   0.401   1.439 -1.6231  0.5025 -0.7789
   39PVA    C49 6621   3.832   0.283   1.580  0.1483  0.1642  0.0096
   39PVA    H97 6622   3.836   0.193   1.642  0.1636 -0.5261 -0.9671
   39PVA    H98 6623   3.746   0.270   1.513  0.4059  4.5078 -1.5052
   39PVA    C50 6624   3.770   0.391   1.687 -0.7069  0.5405 -0.1538
   39PVA    H99 6625   3.815   0.363   1.784 -2.3922  2.3212  1.2234
   39PVA    O17 6626   3.814   0.514   1.652 -0.3126 -0.2119  1.2605
   39PVA   H100 6627   3.899   0.528   1.696  1.4004  1.8125 -2.2488
   39PVA    C51 6628   3.612   0.400   1.726 -0.2977 -0.7058  1.3805
   39PVA   H101 6629   3.567   0.438   1.633  3.6563  3.1498  0.6634
   39PVA   H102 6630   3.557   0.306   1.738 -5.1986  1.3699 -1.2729
   40PVA     C1 6631   5.165   3.048   6.433 -0.6715  0.0614 -0.8907
   40PVA     H1 6632   5.164   3.139   6.370 -2.4484  2.2828  2.0922
   40PVA     H2 6633   5.193   2.968   6.363 -1.1209 -0.3133 -0.6477
   40PVA     C2 6634   5.011   3.036   6.478 -0.4321  0.0294  0.0193
   40PVA     H3 6635   4.994   2.950   6.544 -0.2604 -1.2723 -1.5829
   40PVA     O1 6636   4.951   3.156   6.536 -0.7403 -0.1812 -0.4340
   40PVA     H4 6637   4.940   3.130   6.629 -1.0332  1.0035 -0.1209
   40PVA     C3 6638   4.926   3.004   6.356  0.0393  0.2157  0.0966
   40PVA     H5 6639   4.971   2.919   6.303 -0.0782 -1.2391  2.2181
   40PVA     H6 6640   4.952   3.062   6.266 -1.4474 -0.2140 -0.6455
   40PVA     C4 6641   4.774   3.004   6.343 -0.5502 -0.2180 -0.6181
   40PVA     H7 6642   4.739   2.924   6.409  2.7399 -2.2350 -1.0850
   40PVA     H8 6643   4.755   3.104   6.384  5.0972  0.8857  0.1338
   40PVA     C5 6644   4.715   2.958   6.208  1.1215 -0.2050  0.7168
   40PVA     H9 6645   4.782   2.883   6.164 -0.8144 -3.5005  2.9745
   40PVA     O2 6646   4.724   3.076   6.145 -0.8469  0.4656 -0.7540
   40PVA    H10 6647   4.790   3.128   6.194  1.9128 -0.7625 -2.9031
   40PVA     C6 6648   4.573   2.912   6.189  0.2769 -0.6564 -1.0121
   40PVA    H11 6649   4.567   2.826   6.257  0.4204 -0.2479 -0.4723
   40PVA    H12 6650   4.507   2.994   6.222  1.4065  1.7097 -4.1026
   40PVA     C7 6651   4.543   2.864   6.043 -0.1211 -1.2965 -0.7160
   40PVA    H13 6652   4.600   2.775   6.014  0.8987 -0.8087 -0.2438
   40PVA    H14 6653   4.603   2.934   5.984  2.7346 -1.3898  1.8391
   40PVA     C8 6654   4.396   2.858   5.979 -1.6462  0.1113 -0.3448
   40PVA    H15 6655   4.358   2.763   6.019  0.0419 -1.1920 -1.6614
   40PVA     O3 6656   4.320   2.962   6.030 -0.6478 -0.0239 -0.1625
   40PVA    H16 6657   4.375   3.038   6.002  2.5146 -2.1519 -0.2958
   40PVA     C9 6658   4.402   2.836   5.828 -0.1287  0.0435  1.1124
   40PVA    H17 6659   4.447   2.738   5.812 -1.0289  0.2189 -4.1640
   40PVA    H18 6660   4.464   2.909   5.775 -0.8111 -1.0906 -1.3786
   40PVA    C10 6661   4.263   2.852   5.752  0.7334 -0.1629 -0.1992
   40PVA    H19 6662   4.199   2.768   5.785 -0.0090  1.0779  1.6955
   40PVA    H20 6663   4.239   2.954   5.785  1.4160 -0.7352  2.2910
   40PVA    C11 6664   4.255   2.864   5.600 -0.1866  0.8549 -0.7680
   40PVA    H21 6665   4.354   2.899   5.566  0.0451 -0.3085 -1.3759
   40PVA     O4 6666   4.251   2.729   5.547 -0.6751 -0.4430  0.5637
   40PVA    H22 6667   4.273   2.753   5.455 -0.4302  0.2454  0.7992
   40PVA    C12 6668   4.136   2.955   5.560 -0.8699  0.0201 -0.4982
   40PVA    H23 6669   4.140   3.047   5.619  5.6305  3.4683 -5.0422
   40PVA    H24 6670   4.163   3.003   5.465 -1.2153 -1.2996 -1.2978
   40PVA    C13 6671   4.006   2.883   5.553 -0.2125 -0.8064 -0.2236
   40PVA    H25 6672   3.988   2.866   5.660 -1.2839 -0.4075 -0.3230
   40PVA    H26 6673   4.013   2.787   5.502 -0.9882  0.2219 -2.3915
   40PVA    C14 6674   3.895   2.961   5.494  0.4200  0.0082 -0.6770
   40PVA    H27 6675   3.941   3.019   5.414  2.1378 -1.8668 -1.1151
   40PVA     O5 6676   3.849   3.053   5.591  0.3561  0.0074 -0.1000
   40PVA    H28 6677   3.916   3.123   5.590  1.2683 -0.8167 -2.8064
   40PVA    C15 6678   3.772   2.877   5.452  0.0970 -0.3519  0.5821
   40PVA    H29 6679   3.710   2.830   5.530 -0.0246  0.7718  1.1816
   40PVA    H30 6680   3.804   2.790   5.394 -1.9216 -1.4951  1.0904
   40PVA    C16 6681   3.684   2.965   5.355 -0.4534  0.6986 -0.9723
   40PVA    H31 6682   3.641   3.028   5.433 -0.5734 -1.5049  0.8575
   40PVA    H32 6683   3.742   3.021   5.280 -0.2701 -0.9614 -2.1414
   40PVA    C17 6684   3.571   2.884   5.284 -0.5362  0.3757 -0.4490
   40PVA    H33 6685   3.521   2.808   5.346 -1.6331  2.1080  0.8917
   40PVA     O6 6686   3.477   2.978   5.247  0.1745  0.1535  0.2785
   40PVA    H34 6687   3.425   2.917   5.193  1.4068 -0.8599  0.1944
   40PVA    C18 6688   3.621   2.825   5.152  0.0706 -0.4284  0.5537
   40PVA    H35 6689   3.723   2.785   5.161  0.8122  0.5602 -2.3002
   40PVA    H36 6690   3.635   2.899   5.072  2.2720  0.3003  1.5432
   40PVA    C19 6691   3.548   2.696   5.093 -0.6447  0.6227 -0.8932
   40PVA    H37 6692   3.474   2.662   5.166  0.6196 -5.1009 -1.7769
   40PVA    H38 6693   3.483   2.720   5.007 -0.1197 -0.6966 -1.6921
   40PVA    C20 6694   3.641   2.566   5.054 -0.0213 -0.2806 -0.6206
   40PVA    H39 6695   3.698   2.610   4.971 -0.7508 -1.2756 -1.6861
   40PVA     O7 6696   3.721   2.517   5.158 -0.2444  0.0771  0.1805
   40PVA    H40 6697   3.696   2.540   5.249 -1.8734 -4.1161  1.0406
   40PVA    C21 6698   3.559   2.456   4.990 -0.1226  0.6639 -0.4218
   40PVA    H41 6699   3.499   2.417   5.073 -3.1112  2.9496 -1.3141
   40PVA    H42 6700   3.496   2.498   4.911  0.4352  1.0819 -0.6519
   40PVA    C22 6701   3.658   2.351   4.930  0.4421 -0.2022  0.7547
   40PVA    H43 6702   3.742   2.404   4.883  0.7440 -0.4001  1.0671
   40PVA    H44 6703   3.720   2.302   5.006  0.8476 -2.7056 -1.0507
   40PVA    C23 6704   3.617   2.242   4.830  0.0018 -0.8328  0.4101
   40PVA    H45 6705   3.711   2.231   4.774  0.3999 -2.2984  1.3153
   40PVA     O8 6706   3.579   2.130   4.912  0.0484  1.2892  0.2682
   40PVA    H46 6707   3.562   2.162   5.002 -3.8080 -0.2655  0.2985
   40PVA    C24 6708   3.523   2.299   4.717  0.4156  1.3139  1.1039
   40PVA    H47 6709   3.425   2.336   4.751  0.2665  2.9071 -0.9066
   40PVA    H48 6710   3.566   2.382   4.661  0.4497  0.6752  0.1566
   40PVA    C25 6711   3.481   2.178   4.624 -0.2079 -0.8530 -0.7071
   40PVA    H49 6712   3.447   2.106   4.699 -0.1498 -0.4216 -0.2631
   40PVA    H50 6713   3.571   2.130   4.583  2.8701  3.4796  0.2305
   40PVA    C26 6714   3.378   2.203   4.508  1.0782  0.0932 -0.5420
   40PVA    H51 6715   3.289   2.249   4.553 -1.5566 -2.9929 -2.2461
   40PVA     O9 6716   3.428   2.292   4.408 -0.6119  0.2009  0.2326
   40PVA    H52 6717   3.508   2.239   4.387  0.5636  1.3734  1.5438
   40PVA    C27 6718   3.339   2.064   4.448 -0.0430 -0.1142 -0.1223
   40PVA    H53 6719   3.264   2.026   4.518  2.9258  0.6858  3.8748
   40PVA    H54 6720   3.413   1.985   4.465 -1.4239 -1.7705 -1.4275
   40PVA    C28 6721   3.268   2.058   4.305  0.0051  0.1661 -0.1165
   40PVA    H55 6722   3.172   2.111   4.306 -1.8773 -2.9624  0.8843
   40PVA    H56 6723   3.333   2.108   4.233  5.5176 -0.3755  3.8512
   40PVA    C29 6724   3.245   1.911   4.250 -0.2450 -0.2214  0.2655
   40PVA    H57 6725   3.341   1.880   4.207  1.1324  4.8250 -0.9040
   40PVA    O10 6726   3.207   1.822   4.349 -0.7838  0.5070 -0.6540
   40PVA    H58 6727   3.121   1.858   4.376 -1.1185 -0.0991 -0.9207
   40PVA    C30 6728   3.149   1.908   4.130  0.7056  0.4552 -0.0862
   40PVA    H59 6729   3.054   1.884   4.178  2.6859 -2.9308  2.6470
   40PVA    H60 6730   3.137   2.011   4.093 -2.1929 -0.7645 -3.0153
   40PVA    C31 6731   3.202   1.807   4.019  0.1226 -0.1086 -0.3607
   40PVA    H61 6732   3.160   1.709   4.046 -2.3675 -0.1601 -3.8312
   40PVA    H62 6733   3.308   1.812   3.991 -0.4616  0.5498 -2.6530
   40PVA    C32 6734   3.117   1.812   3.889 -0.6149  0.4860 -0.4453
   40PVA    H63 6735   3.121   1.898   3.821  2.8833 -0.3534 -1.5228
   40PVA    O11 6736   2.988   1.799   3.916  0.9796  1.0431 -0.2484
   40PVA    H64 6737   2.943   1.833   3.836  0.8896 -2.6387 -1.9889
   40PVA    C33 6738   3.169   1.704   3.797  0.1036 -0.8892  0.0022
   40PVA    H65 6739   3.158   1.610   3.852 -2.1688 -1.9870 -2.1427
   40PVA    H66 6740   3.274   1.735   3.783 -0.7134  1.9227 -0.5310
   40PVA    C34 6741   3.085   1.683   3.662 -0.3713 -0.0339 -0.6893
   40PVA    H67 6742   3.080   1.577   3.635  1.7902 -0.4686  0.3363
   40PVA    H68 6743   2.981   1.710   3.684  0.0436 -0.1989  1.7013
   40PVA    C35 6744   3.140   1.767   3.539 -0.5652 -0.2318 -0.2216
   40PVA    H69 6745   3.233   1.712   3.520  0.3025  0.5907  1.3914
   40PVA    O12 6746   3.161   1.897   3.580 -0.3764  0.2261 -0.5203
   40PVA    H70 6747   3.246   1.917   3.537 -1.5611  1.9601 -2.2687
   40PVA    C36 6748   3.044   1.739   3.422 -0.0458 -0.6507 -0.2359
   40PVA    H71 6749   3.016   1.634   3.431 -1.4053 -0.3524 -0.7089
   40PVA    H72 6750   2.946   1.789   3.429 -0.4792 -0.6826 -4.1783
   40PVA    C37 6751   3.116   1.755   3.289 -0.5939 -0.2607  0.0606
   40PVA    H73 6752   3.210   1.698   3.289 -2.2243 -3.1379 -0.0988
   40PVA    H74 6753   3.148   1.860   3.287  0.7379 -0.6479  0.0345
   40PVA    C38 6754   3.066   1.729   3.147  0.1824 -0.9127  0.6368
   40PVA    H75 6755   3.151   1.760   3.085  1.2725 -3.6873  0.6157
   40PVA    O13 6756   2.975   1.828   3.107 -0.7424  0.0109  0.6723
   40PVA    H76 6757   2.921   1.757   3.068  1.6814 -1.4163 -0.2804
   40PVA    C39 6758   3.027   1.586   3.106 -0.1558 -0.6624  0.0730
   40PVA    H77 6759   2.917   1.588   3.097 -0.0071 -2.1407 -3.8469
   40PVA    H78 6760   3.073   1.514   3.174  0.4983  2.8839  3.8336
   40PVA    C40 6761   3.054   1.557   2.950  0.1403 -1.6584  0.9803
   40PVA    H79 6762   2.972   1.599   2.892 -0.8668  1.5446  4.3157
   40PVA    H80 6763   3.136   1.618   2.911 -0.3632 -2.2142 -1.0453
   40PVA    C41 6764   3.084   1.409   2.912  0.2183 -0.3263  1.4112
   40PVA    H81 6765   2.989   1.356   2.900  0.7410 -1.1734  0.8655
   40PVA    O14 6766   3.177   1.351   3.013 -0.0575 -0.4572  0.7615
   40PVA    H82 6767   3.201   1.258   3.000  0.8700 -0.3903  1.8998
   40PVA    C42 6768   3.145   1.420   2.760  0.0987 -0.9555  0.3445
   40PVA    H83 6769   3.078   1.366   2.691  1.9293  0.5909 -2.9053
   40PVA    H84 6770   3.132   1.519   2.716  1.8778 -0.8924 -0.1484
   40PVA    C43 6771   3.286   1.367   2.729  0.1335 -0.4565 -0.2722
   40PVA    H85 6772   3.288   1.258   2.741  1.3055 -0.6203 -1.6371
   40PVA    H86 6773   3.345   1.414   2.809 -0.9415  0.5121 -0.0148
   40PVA    C44 6774   3.343   1.395   2.594 -0.4889  0.5498 -0.4798
   40PVA    H87 6775   3.265   1.385   2.517 -0.7891 -1.2437  0.0262
   40PVA    O15 6776   3.405   1.534   2.607 -0.1250  0.4610  0.1212
   40PVA    H88 6777   3.446   1.566   2.525  1.0951  3.3002  1.6773
   40PVA    C45 6778   3.464   1.288   2.563 -0.1154 -0.1500  0.1380
   40PVA    H89 6779   3.531   1.267   2.647 -0.0777 -0.0208  0.1400
   40PVA    H90 6780   3.527   1.338   2.489 -0.3887 -0.2002 -0.1291
   40PVA    C46 6781   3.401   1.159   2.497 -0.0868 -0.7362 -0.0872
   40PVA    H91 6782   3.330   1.187   2.419 -1.5092 -0.7181  1.1576
   40PVA    H92 6783   3.350   1.113   2.583 -2.3466  0.9432 -0.4268
   40PVA    C47 6784   3.491   1.073   2.407 -0.1481 -1.1748  0.1231
   40PVA    H93 6785   3.573   1.044   2.474  1.5565 -2.6215 -2.4007
   40PVA    O16 6786   3.540   1.141   2.291 -0.8193  0.6391 -0.0314
   40PVA    H94 6787   3.634   1.163   2.299 -0.3150 -1.5273  0.6106
   40PVA    C48 6788   3.418   0.941   2.366 -0.4647 -0.3501 -0.2216
   40PVA    H95 6789   3.412   0.861   2.441  0.2377 -0.4150 -0.2253
   40PVA    H96 6790   3.308   0.944   2.363 -0.4789  3.0498 -3.2617
   40PVA    C49 6791   3.470   0.880   2.235  0.5746  0.2109  0.8207
   40PVA    H97 6792   3.578   0.861   2.238  1.0276  1.1394 -3.3732
   40PVA    H98 6793   3.461   0.949   2.150  0.9298 -1.0322 -0.2795
   40PVA    C50 6794   3.377   0.748   2.197 -0.4888  0.0845  0.5235
   40PVA    H99 6795   3.272   0.775   2.214  0.0919  3.1524 -0.2217
   40PVA    O17 6796   3.394   0.636   2.290 -0.1487 -0.2383 -0.3752
   40PVA   H100 6797   3.379   0.556   2.237  2.9082 -1.3585  0.2585
   40PVA    C51 6798   3.442   0.694   2.053 -0.5690 -0.7701 -0.4523
   40PVA   H101 6799   3.435   0.775   1.979 -2.3812 -2.3132 -2.0949
   40PVA   H102 6800   3.541   0.662   2.087 -0.0344  1.2803  0.0830
   41PVA     C1 6801   5.312   3.011   6.927 -1.1944  0.0732 -0.0149
   41PVA     H1 6802   5.418   2.980   6.929  0.0130  3.4005 -2.4704
   41PVA     H2 6803   5.267   2.912   6.912  3.4840 -2.4800  0.7065
   41PVA     C2 6804   5.259   3.080   7.055 -0.2617 -0.1149  0.5964
   41PVA     H3 6805   5.216   3.177   7.028  1.4929  0.2290 -1.2517
   41PVA     O1 6806   5.370   3.106   7.146 -0.5511  0.5328  0.8482
   41PVA     H4 6807   5.389   3.038   7.213  0.2378 -1.9903 -1.7278
   41PVA     C3 6808   5.128   3.006   7.118  0.0695 -0.0361  0.2373
   41PVA     H5 6809   5.129   2.896   7.113 -0.9927 -0.0671  0.6080
   41PVA     H6 6810   5.035   3.023   7.063  0.2648 -1.6413 -0.6512
   41PVA     C4 6811   5.118   3.039   7.272  0.0702  0.3598  0.3110
   41PVA     H7 6812   5.221   3.019   7.304  0.9571  2.1319 -1.2647
   41PVA     H8 6813   5.126   3.147   7.287  1.2658  0.5999 -1.7125
   41PVA     C5 6814   5.006   2.969   7.348 -0.5564 -0.1877  0.5750
   41PVA     H9 6815   4.970   3.048   7.415  2.0194  1.9176 -0.3191
   41PVA     O2 6816   4.883   2.949   7.271 -0.7356 -0.6774  0.0211
   41PVA    H10 6817   4.900   2.861   7.232 -2.2242 -0.6111 -0.8852
   41PVA     C6 6818   5.045   2.840   7.440  1.0969 -0.0569  0.2436
   41PVA    H11 6819   5.111   2.780   7.376  3.3715  4.5020 -2.2227
   41PVA    H12 6820   5.101   2.878   7.526  0.2550 -0.4544  0.9837
   41PVA     C7 6821   4.925   2.763   7.506  0.7604  0.3411  0.5827
   41PVA    H13 6822   4.834   2.818   7.533  0.8194  1.8384 -1.9290
   41PVA    H14 6823   4.964   2.727   7.602 -0.8548  0.9691  1.5103
   41PVA     C8 6824   4.879   2.647   7.426 -0.3369  0.0424  0.8241
   41PVA    H15 6825   4.948   2.563   7.445 -2.6115 -2.3277 -0.6533
   41PVA     O3 6826   4.894   2.661   7.286  0.5572  1.0784  0.1868
   41PVA    H16 6827   4.815   2.620   7.247  2.6653  0.3655 -3.8280
   41PVA     C9 6828   4.745   2.579   7.457 -0.3316 -0.2505 -0.3843
   41PVA    H17 6829   4.670   2.624   7.391 -0.3801 -3.4803 -2.7841
   41PVA    H18 6830   4.727   2.611   7.561  3.0795  4.2087 -0.9064
   41PVA    C10 6831   4.748   2.436   7.432 -0.4943  0.0522  0.8030
   41PVA    H19 6832   4.828   2.409   7.502  1.7925  3.8312 -0.0239
   41PVA    H20 6833   4.783   2.420   7.329  0.4880 -0.6671  1.2249
   41PVA    C11 6834   4.601   2.362   7.452  0.3354 -0.3826  0.2068
   41PVA    H21 6835   4.611   2.272   7.391  2.7516 -0.0223 -0.0524
   41PVA     O4 6836   4.486   2.452   7.416 -0.4256 -0.0334  0.0987
   41PVA    H22 6837   4.413   2.391   7.435  0.7940 -2.0426 -1.3246
   41PVA    C12 6838   4.586   2.307   7.600 -0.4250  0.7798  0.9047
   41PVA    H23 6839   4.674   2.243   7.613 -0.2569  0.7552 -0.2596
   41PVA    H24 6840   4.604   2.376   7.684  5.3722  3.9168 -2.2489
   41PVA    C13 6841   4.464   2.214   7.612 -0.2364  0.3312 -0.2154
   41PVA    H25 6842   4.429   2.187   7.511 -0.9668  2.8975 -0.7108
   41PVA    H26 6843   4.388   2.276   7.662 -0.0481  1.2288 -1.0128
   41PVA    C14 6844   4.485   2.080   7.679  0.3163 -0.5292  0.6490
   41PVA    H27 6845   4.569   2.033   7.627  0.7846 -0.1056  1.0143
   41PVA     O5 6846   4.538   2.121   7.806 -0.5208 -0.9150 -0.1903
   41PVA    H28 6847   4.608   2.056   7.826  1.4051 -0.1462 -3.7734
   41PVA    C15 6848   4.343   2.003   7.694  1.2255  1.0519  0.2951
   41PVA    H29 6849   4.274   2.007   7.609 -0.6306 -1.4609  1.5564
   41PVA    H30 6850   4.282   2.057   7.768  0.4741  0.0367  0.4376
   41PVA    C16 6851   4.367   1.866   7.742 -1.2495  0.0259 -0.1257
   41PVA    H31 6852   4.471   1.835   7.724 -0.7025  1.0335  1.1420
   41PVA    H32 6853   4.362   1.864   7.852 -1.0846  2.9039  0.0044
   41PVA    C17 6854   4.263   1.759   7.688  0.8840 -0.0616  0.6369
   41PVA    H33 6855   4.173   1.812   7.655  2.5886  3.0711  0.5874
   41PVA     O6 6856   4.298   1.704   7.558  0.6666 -0.1142  0.3507
   41PVA    H34 6857   4.386   1.744   7.546  2.0416 -1.5142  4.1508
   41PVA    C18 6858   4.227   1.639   7.782 -0.2006  0.8847  0.9118
   41PVA    H35 6859   4.263   1.640   7.885 -0.1125 -3.5405  1.1365
   41PVA    H36 6860   4.118   1.651   7.778 -0.5518 -1.9418 -0.8172
   41PVA    C19 6861   4.240   1.483   7.741  0.2517 -0.5587 -0.1272
   41PVA    H37 6862   4.342   1.465   7.706  0.0670 -0.3245 -0.8104
   41PVA    H38 6863   4.193   1.478   7.642  0.6688 -3.6397 -0.2543
   41PVA    C20 6864   4.181   1.373   7.830 -0.2400 -0.4353  0.8991
   41PVA    H39 6865   4.241   1.360   7.921  0.0829 -4.7459  0.2868
   41PVA     O7 6866   4.047   1.402   7.843 -0.1274  0.7379  0.1080
   41PVA    H40 6867   4.036   1.492   7.878 -0.3582  1.4734 -1.7656
   41PVA    C21 6868   4.212   1.230   7.764 -0.6306 -0.0477  0.2005
   41PVA    H41 6869   4.202   1.223   7.655 -2.0343 -1.6360  0.3887
   41PVA    H42 6870   4.321   1.231   7.774 -0.5581  1.0757 -0.4759
   41PVA    C22 6871   4.168   1.111   7.847  0.2759  0.6104  0.6875
   41PVA    H43 6872   4.179   1.030   7.774  1.5555  1.4719 -0.0836
   41PVA    H44 6873   4.239   1.086   7.927  0.3029 -4.9737 -0.6620
   41PVA    C23 6874   4.025   1.105   7.909 -0.2905  0.6775  0.2413
   41PVA    H45 6875   3.960   1.113   7.821 -0.1395 -1.1843 -0.0847
   41PVA     O8 6876   3.989   1.206   7.996 -0.0078 -0.5147  0.1235
   41PVA    H46 6877   4.017   1.287   7.949  0.6675 -1.4790 -1.1950
   41PVA    C24 6878   3.977   0.974   7.970  0.2972 -0.6435 -1.7878
   41PVA    H47 6879   3.996   0.886   7.907 -0.9846 -2.4377  0.2085
   41PVA    H48 6880   4.022   0.964   8.070 -1.3220 -1.7690 -1.1390
   41PVA    C25 6881   3.821   0.960   8.002 -0.0307 -0.4818  1.3422
   41PVA    H49 6882   3.770   0.985   7.908 -0.7840 -3.8934  0.7046
   41PVA    H50 6883   3.795   1.041   8.072 -2.9410  0.5564 -0.7791
   41PVA    C26 6884   3.767   0.831   8.063  0.0539  0.3228  1.0997
   41PVA    H51 6885   3.802   0.739   8.014 -1.1888 -0.1722  1.1006
   41PVA     O9 6886   3.799   0.837   0.110 -0.2762 -0.3866 -0.8345
   41PVA    H52 6887   3.890   0.804   0.118  0.1591  0.8496 -0.2947
   41PVA    C27 6888   3.619   0.824   8.037 -1.2783  0.2645  0.2903
   41PVA    H53 6889   3.579   0.921   8.067 -1.2648 -0.0793  1.4549
   41PVA    H54 6890   3.617   0.820   7.927  1.8107 -0.8988  0.1628
   41PVA    C28 6891   3.541   0.701   8.093  0.2658 -0.4152 -0.5989
   41PVA    H55 6892   3.510   0.756   0.085 -0.7256  4.9868 -3.8321
   41PVA    H56 6893   3.600   0.618   0.037  2.7725  1.9269  0.8633
   41PVA    C29 6894   3.410   0.658   8.023  0.9876  0.0783  0.1132
   41PVA    H57 6895   3.411   0.637   7.915 -0.3686  1.1233 -0.1273
   41PVA    O10 6896   3.369   0.551   0.005 -0.8307  1.0009 -1.4302
   41PVA    H58 6897   3.428   0.477   8.081  0.9459  2.7194 -2.8819
   41PVA    C30 6898   3.293   0.761   8.025  0.9179  0.8748  0.1912
   41PVA    H59 6899   3.227   0.744   0.014  1.1933 -0.1159  0.2154
   41PVA    H60 6900   3.347   0.857   8.024  3.6715 -0.5660  1.0966
   41PVA    C31 6901   3.192   0.741   7.896 -0.1932  0.0179 -0.5722
   41PVA    H61 6902   3.146   0.641   7.892 -2.1940  0.4822  4.3382
   41PVA    H62 6903   3.250   0.750   7.804  1.0271  1.9116  0.3244
   41PVA    C32 6904   3.061   0.831   7.885  0.8392 -1.4323 -0.3640
   41PVA    H63 6905   3.077   0.937   7.907  5.0156 -1.8655 -0.5794
   41PVA    O11 6906   2.973   0.780   7.989 -1.0509 -0.7876 -0.1808
   41PVA    H64 6907   2.991   0.831   8.070  3.3941 -0.8943 -0.8122
   41PVA    C33 6908   2.978   0.842   7.748  1.4918  0.5910  0.2711
   41PVA    H65 6909   3.052   0.851   7.667  1.1656  2.1792  0.1105
   41PVA    H66 6910   2.914   0.756   7.723 -3.0693  3.4813  0.8415
   41PVA    C34 6911   2.884   0.962   7.748 -0.2045 -0.0787 -0.4500
   41PVA    H67 6912   2.800   0.946   7.816 -0.6295 -1.0198 -1.1754
   41PVA    H68 6913   2.959   1.035   7.781  3.0431 -0.9885 -4.7724
   41PVA    C35 6914   2.823   0.998   7.608 -0.1471 -0.1878 -0.9168
   41PVA    H69 6915   2.912   1.005   7.543  0.0049  3.2009 -0.5424
   41PVA    O12 6916   2.778   1.122   7.633  0.5270  0.4980  0.3999
   41PVA    H70 6917   2.730   1.130   7.549 -2.8346 -3.3380  1.5965
   41PVA    C36 6918   2.714   0.917   7.542  0.1135  0.5307  0.1337
   41PVA    H71 6919   2.687   0.826   7.597  0.2125 -0.6661 -1.7064
   41PVA    H72 6920   2.735   0.886   7.439  1.8487 -4.1636  1.6247
   41PVA    C37 6921   2.572   0.985   7.531  0.6012 -0.0053 -0.2886
   41PVA    H73 6922   2.576   1.062   7.453  1.1690 -1.6260 -1.9463
   41PVA    H74 6923   2.547   1.030   7.628 -1.1392  0.5362 -0.9498
   41PVA    C38 6924   2.450   0.895   7.488  0.0110 -0.9781  0.2809
   41PVA    H75 6925   2.494   0.819   7.422  3.1124 -0.5736  1.6948
   41PVA    O13 6926   2.361   0.972   7.415 -0.2089 -0.7781 -0.1573
   41PVA    H76 6927   2.401   0.990   7.329 -0.9386  3.6276  0.1823
   41PVA    C39 6928   2.362   0.804   7.583  0.2099 -1.0347 -0.4788
   41PVA    H77 6929   2.348   0.871   7.669  1.5581  1.1507 -1.8487
   41PVA    H78 6930   2.433   0.730   7.624 -0.3507 -0.8124  0.9666
   41PVA    C40 6931   2.217   0.744   7.530  0.4486 -0.5640 -0.1450
   41PVA    H79 6932   2.152   0.832   7.542 -4.2365 -3.6926 -0.0705
   41PVA    H80 6933   2.199   0.714   7.426 -1.2401  3.6364 -1.2796
   41PVA    C41 6934   2.143   0.656   7.626  0.6439  0.1644  0.5500
   41PVA    H81 6935   2.212   0.574   7.650 -0.6863 -1.4043 -0.7219
   41PVA    O14 6936   2.120   0.729   7.745 -0.0652  0.2630 -1.7957
   41PVA    H82 6937   2.131   0.823   7.723  4.7113  0.3172 -0.3775
   41PVA    C42 6938   1.995   0.598   7.593  0.2603  0.4884 -0.3975
   41PVA    H83 6939   1.961   0.689   7.542 -0.0535  0.2548 -0.6112
   41PVA    H84 6940   1.946   0.595   7.691  6.6981 -7.0799  3.7970
   41PVA    C43 6941   1.994   0.468   7.505  0.1237 -1.1182  0.7670
   41PVA    H85 6942   2.079   0.484   7.438  1.6310  3.0210  3.2225
   41PVA    H86 6943   2.013   0.374   7.558 -0.4957 -1.2920  0.6950
   41PVA    C44 6944   1.858   0.421   7.448 -0.1138  0.0655  0.6097
   41PVA    H87 6945   1.780   0.413   7.524  1.6391  1.0677  2.6345
   41PVA    O15 6946   1.808   0.523   7.369  0.3121  0.1375  0.8684
   41PVA    H88 6947   1.786   0.585   7.441  2.4224  1.5602  0.4025
   41PVA    C45 6948   1.866   0.283   7.370 -0.1507  0.1493  0.2929
   41PVA    H89 6949   1.936   0.298   7.287 -4.3580 -1.9969 -4.1979
   41PVA    H90 6950   1.918   0.202   7.423  0.7088 -1.0600 -2.2475
   41PVA    C46 6951   1.743   0.221   7.299 -0.3662  0.2272  0.2399
   41PVA    H91 6952   1.686   0.161   7.371 -0.2433  0.4862  0.5534
   41PVA    H92 6953   1.668   0.290   7.258 -1.5325  0.0441  1.9738
   41PVA    C47 6954   1.792   0.130   7.173  0.1899  1.1898 -1.0735
   41PVA    H93 6955   1.848   0.204   7.113  1.8895  0.3987 -0.5283
   41PVA    O16 6956   1.887   0.028   7.205 -0.2912  0.3768 -0.2789
   41PVA    H94 6957   1.866   0.014   7.299  1.6012 -1.5842 -0.0852
   41PVA    C48 6958   1.690   0.079   7.071 -0.2922 -0.4551  0.5729
   41PVA    H95 6959   1.591   0.072   7.119 -0.0011 -1.4650  1.0391
   41PVA    H96 6960   1.670   0.150   6.990  2.1546 -1.0574 -0.6513
   41PVA    C49 6961   1.699   7.624   7.005 -0.2292  0.7865 -0.0947
   41PVA    H97 6962   1.674   7.555   7.087  1.8070 -0.4477 -0.4499
   41PVA    H98 6963   1.795   7.584   6.970 -2.6184 -3.2551 -2.9235
   41PVA    C50 6964   1.599   7.604   6.884 -0.3480 -0.0927 -1.0111
   41PVA    H99 6965   1.515   7.669   6.911 -2.3633 -1.5455 -3.3657
   41PVA    O17 6966   1.676   7.640   6.767  0.1729  0.2024  0.8798
   41PVA   H100 6967   1.620   7.645   6.687 -0.4255 -2.4327  1.0182
   41PVA    C51 6968   1.569   7.445   6.861  0.1311  0.2982  0.2153
   41PVA   H101 6969   1.569   7.390   6.956 -0.0898 -0.7945 -0.4043
   41PVA   H102 6970   1.666   7.409   6.826 -1.0553 -3.5870  0.4876
   42PVA     C1 6971   3.858   7.492   1.861  0.7427  0.1835 -0.0619
   42PVA     H1 6972   3.902   7.496   1.761  0.0669  2.9145 -0.3250
   42PVA     H2 6973   3.912   7.447   1.945  0.4436  1.9956  1.1774
   42PVA     C2 6974   3.715   7.443   1.835 -0.2108  1.0940 -0.5639
   42PVA     H3 6975   3.668   7.527   1.783  0.9400  3.6511  2.2357
   42PVA     O1 6976   3.733   7.316   1.758  0.0206 -0.1542 -0.2046
   42PVA     H4 6977   3.802   7.339   1.694 -1.7116  0.5408 -1.9236
   42PVA     C3 6978   3.634   7.418   1.964  0.6932 -0.1599 -0.4872
   42PVA     H5 6979   3.642   7.511   2.023  0.9129  2.4190 -4.2272
   42PVA     H6 6980   3.663   7.324   2.012 -1.2365 -1.5437 -1.8549
   42PVA     C4 6981   3.481   7.424   1.926  0.1921 -1.1034  1.6349
   42PVA     H7 6982   3.449   7.528   1.924  2.1432 -0.4391 -1.0285
   42PVA     H8 6983   3.480   7.396   1.820 -0.8818  0.5240  1.1795
   42PVA     C5 6984   3.385   7.337   1.993  0.4745  1.3242 -0.1699
   42PVA     H9 6985   3.375   7.353   2.101 -3.4580  0.7462 -0.2757
   42PVA     O2 6986   3.425   7.199   1.990  0.0163 -0.3351 -0.3298
   42PVA    H10 6987   3.453   7.171   1.901 -1.9577  1.3234 -1.5716
   42PVA     C6 6988   3.247   7.368   1.938  0.5589  0.0414  0.3520
   42PVA    H11 6989   3.204   7.464   1.968 -1.0998  0.3768 -2.6657
   42PVA    H12 6990   3.255   7.380   1.829  0.4455 -0.8590  0.2330
   42PVA     C7 6991   3.126   7.272   1.969 -0.7801 -0.9281  0.3974
   42PVA    H13 6992   3.129   7.245   2.075  3.0786 -0.0754  0.6521
   42PVA    H14 6993   3.149   7.206   1.885  0.7692 -0.4514  0.4165
   42PVA     C8 6994   2.992   7.337   1.954 -0.3917 -0.1487  0.6539
   42PVA    H15 6995   2.992   7.383   1.855 -0.1940  0.0573  0.7483
   42PVA     O3 6996   2.964   7.428   2.066  0.1700  0.0316 -0.2419
   42PVA    H16 6997   2.869   7.414   2.085  0.3554 -0.0749  0.6503
   42PVA     C9 6998   2.874   7.244   1.934 -0.2777 -0.0574 -0.8457
   42PVA    H17 6999   2.893   7.163   2.006  3.0572  2.3149  1.2588
   42PVA    H18 7000   2.883   7.216   1.828  0.1007  1.0804 -1.1231
   42PVA    C10 7001   2.736   7.298   1.958 -0.8438  1.1990 -0.4321
   42PVA    H19 7002   2.698   7.243   2.044 -2.5887 -1.6176 -2.8343
   42PVA    H20 7003   2.717   7.405   1.974 -3.9378  0.5216  1.1259
   42PVA    C11 7004   2.626   7.274   1.842 -0.2295  0.5718 -0.5799
   42PVA    H21 7005   2.652   7.331   1.753 -0.8705  0.0627 -1.0995
   42PVA     O4 7006   2.641   7.137   1.815 -0.0772  0.2348  0.0749
   42PVA    H22 7007   2.704   7.136   1.741 -1.7595  4.9754 -1.8396
   42PVA    C12 7008   2.476   7.301   1.882 -0.2096  0.6695  0.1519
   42PVA    H23 7009   2.469   7.410   1.870 -0.8017  0.5398 -0.7984
   42PVA    H24 7010   2.478   7.280   1.989  4.0873  3.4751  0.8833
   42PVA    C13 7011   2.370   7.221   1.797 -0.2796  1.2018  0.5776
   42PVA    H25 7012   2.411   7.160   1.715  2.6982  1.9687  1.4083
   42PVA    H26 7013   2.284   7.278   1.759 -1.3488 -1.8941 -2.2034
   42PVA    C14 7014   2.304   7.104   1.881  0.3984  0.5651  1.1650
   42PVA    H27 7015   2.359   7.107   1.977  1.3631  4.9153  0.6715
   42PVA     O5 7016   2.318   6.980   1.826 -0.6869 -0.6086  0.5451
   42PVA    H28 7017   2.274   6.983   1.740  4.0575 -3.5857 -2.4591
   42PVA    C15 7018   2.144   7.121   1.901 -0.0352 -0.2241 -0.9072
   42PVA    H29 7019   2.088   7.136   1.808  3.7581 -1.7969 -3.7190
   42PVA    H30 7020   2.139   7.212   1.963 -0.7135 -1.5765  1.1108
   42PVA    C16 7021   2.082   7.008   1.994 -0.4218  0.3585 -0.2591
   42PVA    H31 7022   2.084   6.905   1.957  0.9381  0.6340 -1.0077
   42PVA    H32 7023   2.149   7.002   2.082  0.5537 -1.6414 -1.0737
   42PVA    C17 7024   1.937   7.034   2.026  0.9637 -0.3037  0.2182
   42PVA    H33 7025   1.887   7.034   1.928  1.4952  1.6711 -0.0940
   42PVA     O6 7026   1.918   7.158   2.093 -0.1713  0.0069 -0.4414
   42PVA    H34 7027   1.962   7.138   2.177 -0.3147 -0.0978 -0.3915
   42PVA    C18 7028   1.862   6.925   2.103  0.2597  0.2356  1.0602
   42PVA    H35 7029   1.893   6.831   2.057 -0.6472  0.7595 -0.7034
   42PVA    H36 7030   1.879   6.926   2.212 -0.2206  0.7271  1.1382
   42PVA    C19 7031   1.702   6.914   2.090 -0.9972 -1.6084 -1.2571
   42PVA    H37 7032   1.669   7.010   2.131  0.4246 -0.2207 -3.1779
   42PVA    H38 7033   1.676   6.847   2.173 -0.4041  0.4593  0.6717
   42PVA    C20 7034   1.627   6.885   1.964 -0.0844 -0.8110 -0.8084
   42PVA    H39 7035   1.524   6.877   2.002  0.0658 -0.8926 -0.4183
   42PVA     O7 7036   1.626   7.006   1.875 -1.1403 -0.1644  0.3323
   42PVA    H40 7037   1.601   7.088   1.920  0.3294  1.9852 -2.4605
   42PVA    C21 7038   1.670   6.750   1.910  0.2753 -1.4565  0.0754
   42PVA    H41 7039   1.660   6.676   1.991  0.2768  0.3312  1.7832
   42PVA    H42 7040   1.772   6.744   1.871 -1.2535 -1.4026 -4.4980
   42PVA    C22 7041   1.575   6.702   1.797 -0.7866  0.9923  1.1085
   42PVA    H43 7042   1.616   6.601   1.784 -1.1227  0.4958  3.4977
   42PVA    H44 7043   1.473   6.699   1.836 -1.4641  2.5715 -0.4390
   42PVA    C23 7044   1.558   6.793   1.672  0.2830 -0.5309 -0.0543
   42PVA    H45 7045   1.650   6.853   1.665 -0.3549  0.3055 -6.4618
   42PVA     O8 7046   1.452   6.888   1.695 -0.6341  0.3228  0.7160
   42PVA    H46 7047   1.505   6.950   1.747 -2.4193  0.8669  1.9928
   42PVA    C24 7048   1.527   6.721   1.535  0.8382  0.0361 -0.3665
   42PVA    H47 7049   1.431   6.668   1.546  2.0003 -2.5703 -1.7731
   42PVA    H48 7050   1.607   6.648   1.522 -0.3616 -1.5617  0.6896
   42PVA    C25 7051   1.506   6.825   1.420 -0.7381 -1.0705 -0.9352
   42PVA    H49 7052   1.609   6.859   1.401 -0.4243  0.6427  2.9174
   42PVA    H50 7053   1.441   6.909   1.445  0.4766  0.0539 -1.4046
   42PVA    C26 7054   1.458   6.780   1.277 -0.3683 -0.1196 -0.1673
   42PVA    H51 7055   1.547   6.716   1.265 -0.1748 -0.0442  0.8257
   42PVA     O9 7056   1.329   6.725   1.308  0.1116  0.6381 -0.5018
   42PVA    H52 7057   1.345   6.631   1.329 -2.1696  0.4396  0.6158
   42PVA    C27 7058   1.436   6.898   1.177 -0.7373 -0.3026  0.6612
   42PVA    H53 7059   1.527   6.957   1.166 -1.3046  0.1986 -6.4575
   42PVA    H54 7060   1.366   6.966   1.227 -3.4373 -0.8285 -2.0556
   42PVA    C28 7061   1.380   6.848   1.031  0.6671 -0.2678  0.6130
   42PVA    H55 7062   1.455   6.793   0.973 -1.6889 -1.0781 -1.8506
   42PVA    H56 7063   1.317   6.762   1.055  0.1069  0.2619  1.0676
   42PVA    C29 7064   1.294   6.963   0.968  0.3103  0.5033 -0.5075
   42PVA    H57 7065   1.231   6.978   1.056 -0.4183  0.6780 -1.0410
   42PVA    O10 7066   1.222   6.918   0.855  0.1723 -0.0500  0.8567
   42PVA    H58 7067   1.140   6.970   0.844 -0.2799 -0.6746  1.1952
   42PVA    C30 7068   1.381   7.089   0.943 -0.0050  0.6418  0.0430
   42PVA    H59 7069   1.397   7.132   1.042  1.3718 -1.3587  0.7550
   42PVA    H60 7070   1.479   7.055   0.908 -2.2615 -4.0015 -2.7833
   42PVA    C31 7071   1.299   7.200   0.858 -0.0756 -1.1573 -0.7222
   42PVA    H61 7072   1.192   7.205   0.880  0.3749 -3.2052  2.8379
   42PVA    H62 7073   1.259   7.156   0.766 -2.8767  0.9499 -0.6344
   42PVA    C32 7074   1.391   7.329   0.829 -0.0639 -0.3447  0.0146
   42PVA    H63 7075   1.328   7.409   0.871  1.0845 -0.3612  1.8540
   42PVA    O11 7076   1.518   7.320   0.896 -0.3759 -0.0952  0.4440
   42PVA    H64 7077   1.556   7.408   0.882  1.1028 -0.7842 -0.0101
   42PVA    C33 7078   1.379   7.387   0.691 -0.7197  0.9897 -0.3862
   42PVA    H65 7079   1.272   7.398   0.674 -0.7777  1.5058  0.2798
   42PVA    H66 7080   1.410   7.307   0.622  0.3086 -0.2308  1.4144
   42PVA    C34 7081   1.442   7.527   0.661  0.0549  1.4102  0.6015
   42PVA    H67 7082   1.550   7.523   0.679 -0.3788 -1.6279  3.3790
   42PVA    H68 7083   1.402   7.602   0.730 -3.0622 -1.2160  1.9112
   42PVA    C35 7084   1.412   7.592   0.522 -0.3293 -0.8065 -0.5903
   42PVA    H69 7085   1.382   7.505   0.463  0.6824 -2.0359  0.6228
   42PVA    O12 7086   1.319   0.011   0.520  0.9356 -0.5897 -0.4109
   42PVA    H70 7087   1.319   0.052   0.432 -1.9892 -0.6124 -0.5269
   42PVA    C36 7088   1.548   7.646   0.464  0.5766  0.9499 -0.5574
   42PVA    H71 7089   1.595   0.028   0.538 -1.9153  3.7950 -1.3599
   42PVA    H72 7090   1.615   7.560   0.453  1.9960  1.9313  0.0398
   42PVA    C37 7091   1.559   0.034   0.323  0.4333 -1.3121  0.0986
   42PVA    H73 7092   1.539   0.141   0.340 -3.3431 -1.8972 -0.0064
   42PVA    H74 7093   1.476   0.017   0.253  2.1584  1.0178 -2.7909
   42PVA    C38 7094   1.697   0.001   0.249 -0.0342 -1.1259 -0.6320
   42PVA    H75 7095   1.732   7.586   0.282 -0.8005  0.2472  5.6344
   42PVA    O13 7096   1.786   0.100   0.304 -0.0353 -0.0683 -0.6202
   42PVA    H76 7097   1.732   0.177   0.280 -2.7717 -0.7577  2.6479
   42PVA    C39 7098   1.687   7.654   0.090 -0.8144  1.1713  0.0429
   42PVA    H77 7099   1.583   7.641   0.059 -1.2602  1.9400  1.1454
   42PVA    H78 7100   1.723   7.555   0.061 -0.4371  1.4872 -0.5768
   42PVA    C40 7101   1.782   0.057   8.089 -0.5765 -0.2139  0.3030
   42PVA    H79 7102   1.762   0.163   0.013  0.9750  0.5412 -1.6533
   42PVA    H80 7103   1.889   0.066   0.016 -1.2418 -1.6142  4.4851
   42PVA    C41 7104   1.748   0.013   7.938 -0.6578 -0.9074 -0.0687
   42PVA    H81 7105   1.656   7.640   7.951 -1.1260  0.1895  1.9497
   42PVA    O14 7106   1.853   7.611   7.891  0.3619  0.2561 -0.3480
   42PVA    H82 7107   1.935   7.663   7.889 -0.2175  1.3059  1.3845
   42PVA    C42 7108   1.738   0.124   7.834 -0.7303  0.3877  0.1810
   42PVA    H83 7109   1.717   0.218   7.886 -3.3377 -0.5698  1.0194
   42PVA    H84 7110   1.832   0.120   7.779 -1.8114 -4.2882 -1.7882
   42PVA    C43 7111   1.623   0.106   7.728  0.1705  0.3862 -0.8651
   42PVA    H85 7112   1.622   0.207   7.684  2.5396  1.4368  1.1969
   42PVA    H86 7113   1.532   0.093   7.789  0.4422 -2.7392 -0.9617
   42PVA    C44 7114   1.632   7.671   7.619 -0.9371  0.4644 -0.9206
   42PVA    H87 7115   1.665   7.574   7.657  2.6718  2.7803  2.6990
   42PVA    O15 7116   1.747   0.022   7.549  0.7312  0.6159  0.2733
   42PVA    H88 7117   1.823   0.016   7.609  1.1239 -2.5349 -0.3357
   42PVA    C45 7118   1.508   7.650   7.529  0.6710 -1.7323 -0.3192
   42PVA    H89 7119   1.445   7.574   7.578  2.4815 -2.2562  1.2926
   42PVA    H90 7120   1.526   7.605   7.431  2.1118  0.7662 -1.2929
   42PVA    C46 7121   1.435   0.099   7.506  0.5426  0.6028  0.1313
   42PVA    H91 7122   1.400   0.130   7.605 -2.2939 -4.8731  1.2121
   42PVA    H92 7123   1.498   0.177   7.460 -0.9479  0.0465 -3.2044
   42PVA    C47 7124   1.303   0.090   7.416  0.0476 -0.7142  0.5380
   42PVA    H93 7125   1.241   0.012   7.464 -4.1342  2.6026  1.1179
   42PVA    O16 7126   1.230   0.208   7.432  1.1494 -0.0808 -0.1473
   42PVA    H94 7127   1.256   0.265   7.357 -0.1247  1.0091  0.1927
   42PVA    C48 7128   1.321   0.064   7.263 -0.2290  0.0131 -0.6548
   42PVA    H95 7129   1.373   0.148   7.214 -0.2090  0.9065  0.8536
   42PVA    H96 7130   1.382   7.657   7.262 -2.3817 -1.5233  0.7665
   42PVA    C49 7131   1.195   0.033   7.188  0.4539 -0.0934 -0.2518
   42PVA    H97 7132   1.119   0.112   7.199 -0.1664 -0.9957  3.0867
   42PVA    H98 7133   1.157   7.628   7.239  2.1745 -2.1257 -2.3175
   42PVA    C50 7134   1.217   7.681   7.037  0.1313 -0.8576 -0.3116
   42PVA    H99 7135   1.326   7.681   7.024 -0.0131  0.4734 -1.9644
   42PVA    O17 7136   1.170   0.103   6.965 -0.4336  0.3684 -0.1680
   42PVA   H100 7137   1.255   0.132   6.925  1.0677 -1.4979  1.4609
   42PVA    C51 7138   1.154   7.556   6.980 -0.4680  1.5157 -0.6537
   42PVA   H101 7139   1.083   7.498   7.040  1.3370  0.2499  0.3643
   42PVA   H102 7140   1.083   7.572   6.898 -2.3203 -0.6206  0.4243
   43PVA     C1 7141   4.095   0.269   1.866 -0.4306 -1.0116 -0.5751
   43PVA     H1 7142   4.178   0.249   1.934 -1.4011 -1.7426  0.4415
   43PVA     H2 7143   4.128   0.230   1.769 -0.7194 -3.1717  0.1311
   43PVA     C2 7144   4.079   0.416   1.869 -0.1678 -0.9531 -0.0892
   43PVA     H3 7145   3.984   0.441   1.820  0.5695 -2.1732 -2.2771
   43PVA     O1 7146   4.080   0.457   2.004  0.3852 -0.2555 -0.3941
   43PVA     H4 7147   4.079   0.375   2.057  0.7549  0.1179  0.1982
   43PVA     C3 7148   4.198   0.486   1.805  0.3811 -0.0709  1.8708
   43PVA     H5 7149   4.168   0.527   1.707  3.8962  3.6050  2.0512
   43PVA     H6 7150   4.269   0.415   1.761  1.0680  1.6348  0.0181
   43PVA     C4 7151   4.281   0.605   1.860  0.5278  0.7904 -0.3460
   43PVA     H7 7152   4.209   0.688   1.870  0.0624  0.1413  2.4317
   43PVA     H8 7153   4.317   0.598   1.963  2.5674 -1.3992 -1.1341
   43PVA     C5 7154   4.409   0.631   1.778 -0.9295 -0.0609 -0.8059
   43PVA     H9 7155   4.438   0.533   1.737  0.8614  0.1085 -0.0144
   43PVA     O2 7156   4.372   0.699   1.665 -0.7191  0.6098 -0.4755
   43PVA    H10 7157   4.314   0.640   1.613 -4.8744  1.8058  2.3112
   43PVA     C6 7158   4.531   0.690   1.855 -0.8358  0.8170 -0.0059
   43PVA    H11 7159   4.513   0.743   1.949 -2.7029  0.7136 -0.2594
   43PVA    H12 7160   4.589   0.599   1.876 -0.4544  1.3911  1.5229
   43PVA     C7 7161   4.622   0.790   1.768  0.2040 -0.4512 -0.5259
   43PVA    H13 7162   4.573   0.889   1.769 -1.1309 -0.9888 -2.9333
   43PVA    H14 7163   4.614   0.760   1.663 -2.9178  0.2547 -0.6033
   43PVA     C8 7164   4.760   0.793   1.841  0.0783  0.1076  1.0165
   43PVA    H15 7165   4.804   0.693   1.848 -0.2170  0.0212  1.6432
   43PVA     O3 7166   4.750   0.843   1.978  0.3395 -0.2080  0.2326
   43PVA    H16 7167   4.763   0.940   1.982  5.1329 -0.4421 -2.5995
   43PVA     C9 7168   4.861   0.875   1.759 -0.9740  0.3268 -0.6471
   43PVA    H17 7169   4.939   0.913   1.827 -1.2482 -1.4771  0.7519
   43PVA    H18 7170   4.817   0.970   1.727 -1.6021  0.7224  1.2296
   43PVA    C10 7171   4.920   0.801   1.622  0.4619 -0.8200 -0.1560
   43PVA    H19 7172   4.978   0.716   1.657  3.9866 -0.5267 -4.3844
   43PVA    H20 7173   4.838   0.754   1.567  2.9965 -2.8821 -2.5087
   43PVA    C11 7174   5.006   0.896   1.532 -0.1753  0.9753  0.4418
   43PVA    H21 7175   4.947   0.988   1.524  0.5035  1.5880  2.0242
   43PVA     O4 7176   5.116   0.916   1.604 -0.7838 -0.8312 -0.4548
   43PVA    H22 7177   5.113   0.996   1.659  6.2614  1.1792 -2.0652
   43PVA    C12 7178   5.032   0.822   1.396 -0.3964  0.5349  0.1550
   43PVA    H23 7179   5.057   0.716   1.409 -1.8967  0.0576 -0.6435
   43PVA    H24 7180   4.931   0.822   1.353 -0.4561  0.7472  0.2952
   43PVA    C13 7181   5.105   0.896   1.283 -1.2522  0.3224 -0.4797
   43PVA    H25 7182   5.210   0.914   1.311 -0.7170 -3.8128  1.0032
   43PVA    H26 7183   5.073   0.998   1.262 -0.4681  0.2679 -2.1148
   43PVA    C14 7184   5.090   0.812   1.145 -1.0738 -0.1651 -0.4089
   43PVA    H27 7185   4.987   0.775   1.148 -0.6829 -1.2312  0.2329
   43PVA     O5 7186   5.184   0.713   1.153  0.4443  0.3715 -0.4200
   43PVA    H28 7187   5.160   0.621   1.132  1.5008 -0.6241  2.1933
   43PVA    C15 7188   5.107   0.902   1.024  0.9429 -0.8065  0.0317
   43PVA    H29 7189   5.191   0.972   1.030  0.1668  0.3476 -1.6554
   43PVA    H30 7190   5.038   0.986   1.038  3.3354  0.8535  2.6912
   43PVA    C16 7191   5.109   0.824   0.887  1.1388 -0.0479 -0.5869
   43PVA    H31 7192   5.147   0.721   0.896 -0.8894 -1.0326 -2.3620
   43PVA    H32 7193   5.001   0.811   0.881  0.7785  2.7443 -1.5590
   43PVA    C17 7194   5.168   0.897   0.774  0.1276 -1.1049 -0.0636
   43PVA    H33 7195   5.115   0.992   0.758  0.2734 -1.0069  0.0316
   43PVA     O6 7196   5.149   0.841   0.645 -0.3536  0.0329  0.0909
   43PVA    H34 7197   5.159   0.744   0.651 -0.6906  0.0912  3.2237
   43PVA    C18 7198   5.314   0.931   0.808 -0.3858 -0.3245 -0.4139
   43PVA    H35 7199   5.361   0.838   0.843 -1.4869 -1.3535 -1.5290
   43PVA    H36 7200   5.335   0.980   0.903 -2.9988 -2.7213  1.5717
   43PVA    C19 7201   5.403   0.988   0.690  0.4409  0.2905 -0.5504
   43PVA    H37 7202   5.364   0.930   0.605  1.2092  0.2621 -0.8965
   43PVA    H38 7203   5.362   1.090   0.688  2.0643  1.1562 -5.8761
   43PVA    C20 7204   5.558   0.984   0.717  0.5819 -0.8836  0.3509
   43PVA    H39 7205   5.595   1.041   0.803  2.2515  1.4945 -1.7517
   43PVA     O7 7206   5.602   1.042   0.593 -1.3015 -0.0539  0.1163
   43PVA    H40 7207   5.639   1.126   0.625 -0.5871 -1.3009  2.8617
   43PVA    C21 7208   5.602   0.837   0.741 -0.1820 -0.1577  0.0809
   43PVA    H41 7209   5.522   0.775   0.700 -1.1709 -0.4477  2.2738
   43PVA    H42 7210   5.591   0.827   0.850  1.4265 -0.1195  0.2740
   43PVA    C22 7211   5.745   0.778   0.713  0.5172  0.5208 -0.2576
   43PVA    H43 7212   5.733   0.674   0.678 -1.0000 -0.8636  3.7679
   43PVA    H44 7213   5.790   0.851   0.645 -2.7652  3.2997  0.2708
   43PVA    C23 7214   5.851   0.773   0.831 -0.4599  0.6345 -0.1790
   43PVA    H45 7215   5.816   0.835   0.915 -4.5583 -0.8235 -0.5709
   43PVA     O8 7216   5.841   0.636   0.881  0.2755 -0.4664  0.0213
   43PVA    H46 7217   5.787   0.626   0.961  2.3024  2.0280  1.8697
   43PVA    C24 7218   5.996   0.802   0.789 -0.0292 -1.5018  0.8572
   43PVA    H47 7219   6.037   0.709   0.747  0.1987  0.3785 -3.6008
   43PVA    H48 7220   5.985   0.885   0.718  1.2681  0.3058  2.6605
   43PVA    C25 7221   6.073   0.868   0.910 -0.3424  0.0481  0.3509
   43PVA    H49 7222   6.009   0.945   0.955 -2.6923 -3.2220  3.2029
   43PVA    H50 7223   6.067   0.782   0.979  0.6653 -2.0538 -2.0049
   43PVA    C26 7224   6.216   0.942   0.895  0.3971 -1.3926  0.5927
   43PVA    H51 7225   6.253   0.941   0.792 -2.3123  1.7594 -0.6055
   43PVA     O9 7226   6.322   0.878   0.967 -0.1778 -0.5570  0.6232
   43PVA    H52 7227   6.297   0.913   1.055 -0.0650 -2.7591  1.5947
   43PVA    C27 7228   6.224   1.087   0.949 -0.5084 -0.1296  0.8488
   43PVA    H53 7229   6.197   1.145   0.861 -0.3677  0.7738  1.3892
   43PVA    H54 7230   6.147   1.101   1.027  0.4564  0.8992  1.6424
   43PVA    C28 7231   6.352   1.162   1.001 -0.3012 -0.2341 -0.6041
   43PVA    H55 7232   6.405   1.077   1.044 -0.8895 -2.9059 -4.5921
   43PVA    H56 7233   6.388   1.195   0.903  1.5999  0.0866  0.1695
   43PVA    C29 7234   6.318   1.280   1.102 -0.2477  0.2421 -0.4906
   43PVA    H57 7235   6.265   1.252   1.194 -2.3998  3.6052 -0.5345
   43PVA    O10 7236   6.211   1.364   1.050  0.2178 -0.3411 -0.6344
   43PVA    H58 7237   6.244   1.425   0.981 -0.4592 -1.0963 -1.6621
   43PVA    C30 7238   6.435   1.361   1.143 -0.7120 -0.1752 -0.1687
   43PVA    H59 7239   6.522   1.295   1.142  2.5718  3.7886 -1.0706
   43PVA    H60 7240   6.476   1.426   1.064  2.1352 -0.7173  0.7533
   43PVA    C31 7241   6.413   1.442   1.274  0.0342  0.1824  0.5508
   43PVA    H61 7242   6.347   1.396   1.349  1.3082  3.5114  3.9907
   43PVA    H62 7243   6.354   1.529   1.244  1.0577  1.0001  0.8592
   43PVA    C32 7244   6.544   1.494   1.350 -0.0426  0.5074  0.3468
   43PVA    H63 7245   6.575   1.582   1.293  3.5577 -1.2314 -0.6308
   43PVA    O11 7246   6.647   1.392   1.339  0.1305  0.0036  0.3104
   43PVA    H64 7247   6.623   1.321   1.402  0.5455 -2.1350 -1.8075
   43PVA    C33 7248   6.523   1.540   1.492  1.2000 -1.3307  0.2351
   43PVA    H65 7249   6.499   1.446   1.542 -2.5384 -1.3925 -1.3527
   43PVA    H66 7250   6.425   1.590   1.494  1.0802 -1.3885 -1.8912
   43PVA    C34 7251   6.642   1.638   1.535 -0.6380  0.1652  0.4895
   43PVA    H67 7252   6.729   1.571   1.532 -3.6128 -4.1400  0.7855
   43PVA    H68 7253   6.665   1.717   1.463 -3.5437 -0.0211 -0.7642
   43PVA    C35 7254   6.625   1.722   1.666  1.0174  1.2748 -1.3078
   43PVA    H69 7255   6.549   1.801   1.660  0.9292  1.4996  1.5212
   43PVA    O12 7256   6.564   1.631   1.762 -0.5547 -0.5639  0.1343
   43PVA    H70 7257   6.528   1.692   1.829 -0.9023 -1.2522  0.5769
   43PVA    C36 7258   6.761   1.774   1.711 -0.4876  0.3822  0.6689
   43PVA    H71 7259   6.812   1.832   1.634 -0.8746 -3.0602 -2.4566
   43PVA    H72 7260   6.826   1.690   1.739 -1.1766 -0.4622 -0.2152
   43PVA    C37 7261   6.752   1.851   1.838 -0.4312  0.6356  0.5679
   43PVA    H73 7262   6.666   1.814   1.896 -1.5358  0.1601 -1.3063
   43PVA    H74 7263   6.720   1.949   1.802  1.0760  1.3241  1.0209
   43PVA    C38 7264   6.878   1.846   1.925  0.2116  0.1243 -0.4196
   43PVA    H75 7265   6.955   1.771   1.900  1.2978  0.8760  0.5590
   43PVA    O13 7266   6.946   1.964   1.908  0.2353  0.0506 -0.0918
   43PVA    H76 7267   6.893   2.041   1.882  0.4516  0.4400  0.5843
   43PVA    C39 7268   6.854   1.842   2.074 -1.2572 -0.5817 -1.0531
   43PVA    H77 7269   6.800   1.747   2.087 -2.1255 -0.0630 -0.7418
   43PVA    H78 7270   6.785   1.913   2.121  1.3729  1.0178  0.6080
   43PVA    C40 7271   6.980   1.845   2.170 -0.3485  0.2599  0.0824
   43PVA    H79 7272   7.052   1.780   2.119 -1.0549 -0.4893  0.0200
   43PVA    H80 7273   7.038   1.938   2.165  1.4439 -0.8389 -0.1789
   43PVA    C41 7274   6.958   1.815   2.319 -1.0210  1.1730  0.2109
   43PVA    H81 7275   7.057   1.819   2.366  0.9582 -0.4762 -3.3732
   43PVA    O14 7276   6.933   1.675   2.327  0.2080  0.1183  0.2394
   43PVA    H82 7277   7.003   1.635   2.272  1.2793  3.6261 -1.2340
   43PVA    C42 7278   6.881   1.922   2.396  0.5105  1.1566 -1.7251
   43PVA    H83 7279   6.952   1.996   2.434 -2.4839  1.0491  6.0051
   43PVA    H84 7280   6.806   1.967   2.330  0.9576  2.7919 -1.1756
   43PVA    C43 7281   6.795   1.883   2.518  0.2350 -0.1866  0.8008
   43PVA    H85 7282   6.724   1.808   2.481  0.1010 -0.2278  1.1361
   43PVA    H86 7283   6.737   1.964   2.565 -1.0714  0.1529 -1.2852
   43PVA    C44 7284   6.866   1.827   2.634  0.0195  0.8468 -0.7976
   43PVA    H87 7285   6.935   1.762   2.579 -0.5280  0.7334 -1.3577
   43PVA    O15 7286   6.930   1.929   2.700  0.8320  0.4628  1.1171
   43PVA    H88 7287   6.892   1.924   2.789 -1.1868  1.0195  0.3526
   43PVA    C45 7288   6.777   1.765   2.741 -0.4398  0.5710 -0.3039
   43PVA    H89 7289   6.689   1.829   2.732 -1.1888 -0.4127 -0.2298
   43PVA    H90 7290   6.793   1.776   2.849 -1.3021 -0.5140 -0.0488
   43PVA    C46 7291   6.745   1.632   2.694 -0.7344  0.3411 -0.9037
   43PVA    H91 7292   6.733   1.634   2.585 -0.4049  2.6553 -0.9415
   43PVA    H92 7293   6.838   1.579   2.720 -1.5119  0.5648  2.7495
   43PVA    C47 7294   6.642   1.562   2.786 -0.4075  0.5068  0.5592
   43PVA    H93 7295   6.565   1.635   2.814 -0.7917  0.1811  0.3494
   43PVA    O16 7296   6.719   1.529   2.903 -0.0666 -0.5242  0.0145
   43PVA    H94 7297   6.772   1.609   2.912  0.9469 -1.0281 -1.1846
   43PVA    C48 7298   6.578   1.432   2.719 -1.2341  0.6880  0.0976
   43PVA    H95 7299   6.606   1.348   2.784 -3.3259  1.3226  1.9513
   43PVA    H96 7300   6.633   1.413   2.626  1.9022  1.2586  1.7172
   43PVA    C49 7301   6.430   1.404   2.712 -0.1665 -0.1757 -0.9857
   43PVA    H97 7302   6.394   1.433   2.811  0.8664  0.7646 -0.8746
   43PVA    H98 7303   6.397   1.470   2.630 -2.2942 -0.2351 -0.2482
   43PVA    C50 7304   6.382   1.258   2.692 -0.0755 -0.5435  0.3914
   43PVA    H99 7305   6.414   1.181   2.763  1.6440 -0.9875 -0.8181
   43PVA    O17 7306   6.443   1.216   2.573  0.3473 -0.9562  0.5720
   43PVA   H100 7307   6.507   1.145   2.587  0.4155 -0.6400  2.1442
   43PVA    C51 7308   6.223   1.284   2.690 -0.7351 -0.9145 -0.5775
   43PVA   H101 7309   6.198   1.383   2.731  1.0806 -2.1937  4.3072
   43PVA   H102 7310   6.173   1.221   2.765 -0.4010  2.1986  2.5175
   44PVA     C1 7311   0.594   6.898   7.101  0.6863  0.0867  0.7341
   44PVA     H1 7312   0.517   6.838   7.151 -0.7931  1.4116  0.0966
   44PVA     H2 7313   0.563   6.951   7.011 -3.9747  1.2284  2.7155
   44PVA     C2 7314   0.622   7.008   7.202  0.4968  0.2162  0.1495
   44PVA     H3 7315   0.706   7.053   7.149  1.8257 -1.8399  0.3665
   44PVA     O1 7316   0.661   6.987   7.343 -0.6816  0.2696 -0.2712
   44PVA     H4 7317   0.706   7.072   7.361 -0.1563  0.1141 -0.8159
   44PVA     C3 7318   0.529   7.139   7.194 -0.1111 -0.6290  0.7970
   44PVA     H5 7319   0.518   7.174   7.297 -0.4371 -1.1289  0.9396
   44PVA     H6 7320   0.585   7.206   7.129  0.2011 -0.9465  0.7368
   44PVA     C4 7321   0.383   7.134   7.134 -0.7825  0.4725  0.5447
   44PVA     H7 7322   0.339   7.048   7.187  3.3545 -2.5420 -0.4612
   44PVA     H8 7323   0.380   7.085   7.036  2.3719 -2.7465  1.8462
   44PVA     C5 7324   0.308   7.264   7.118  0.1693 -0.5039 -1.2320
   44PVA     H9 7325   0.313   7.312   7.020 -2.1327  1.9966 -0.2652
   44PVA     O2 7326   0.376   7.363   7.187  1.0486  0.0572 -0.1541
   44PVA    H10 7327   0.466   7.392   7.166  1.1043  0.3900  0.4918
   44PVA     C6 7328   0.154   7.258   7.137  0.4681  0.1114 -0.3636
   44PVA    H11 7329   0.131   7.163   7.087  1.5232 -0.7753  0.7581
   44PVA    H12 7330   0.125   7.252   7.243 -4.4972 -0.3787 -1.5154
   44PVA     C7 7331   0.095   7.395   7.089  0.3646  0.5707  0.9040
   44PVA    H13 7332   0.112   7.410   6.981 -1.3761 -2.4192  0.1025
   44PVA    H14 7333   0.151   7.483   7.124  1.5123 -0.5559  1.9798
   44PVA     C8 7334   7.703   7.416   7.096 -0.2676  0.2904  1.0240
   44PVA    H15 7335   7.689   7.523   7.077  0.2048  0.2255  0.2649
   44PVA     O3 7336   7.648   7.341   6.995 -0.2664  0.2237 -0.1633
   44PVA    H16 7337   7.572   7.395   6.967 -2.3159 -1.9548  0.8515
   44PVA     C9 7338   7.626   7.381   7.225 -0.8690  0.8700  0.8128
   44PVA    H17 7339   7.692   7.442   7.287  0.5832 -2.2897  2.6220
   44PVA    H18 7340   7.643   7.274   7.244  4.9158  1.5342  1.0486
   44PVA    C10 7341   7.477   7.417   7.223 -0.3164 -0.7284 -0.4915
   44PVA    H19 7342   7.414   7.371   7.145  2.0769 -0.4053 -2.7661
   44PVA    H20 7343   7.438   7.365   7.312  2.2529  0.0569  1.1808
   44PVA    C11 7344   7.434   7.566   7.214 -0.2740  0.2458 -0.1603
   44PVA    H21 7345   7.447   7.605   7.112  1.2560  2.4513  0.7780
   44PVA     O4 7346   7.304   7.562   7.259  0.6400 -0.3827 -0.5649
   44PVA    H22 7347   7.244   7.596   7.191  0.3300  1.5627  0.6205
   44PVA    C12 7348   7.504   7.665   7.316 -0.3266 -1.1680 -0.6031
   44PVA    H23 7349   7.480   7.624   7.415  1.4607  0.3759  0.5464
   44PVA    H24 7350   7.614   7.671   7.309 -0.2249 -1.1712  0.6646
   44PVA    C13 7351   7.458   0.134   7.321 -0.0684 -0.4889  0.4055
   44PVA    H25 7352   7.350   0.152   7.318  0.1906  1.1736 -2.6725
   44PVA    H26 7353   7.493   0.165   7.222 -1.0028 -2.5355 -0.6359
   44PVA    C14 7354   7.520   0.214   7.430  0.9701 -0.6773  0.1176
   44PVA    H27 7355   7.468   0.186   7.523 -0.7876 -0.0353 -0.6417
   44PVA     O5 7356   7.664   0.181   7.447 -0.4236  0.1701  0.5364
   44PVA    H28 7357   7.682   0.174   7.542  0.0616  1.1276  0.5258
   44PVA    C15 7358   7.495   0.362   7.402 -0.8610 -1.4173 -0.1354
   44PVA    H29 7359   7.393   0.383   7.368 -0.3653  1.0614 -0.2934
   44PVA    H30 7360   7.569   0.409   7.336 -0.3715 -0.9117  0.7491
   44PVA    C16 7361   7.500   0.430   7.546  0.3386 -1.0962  0.6202
   44PVA    H31 7362   7.403   0.419   7.595  1.1759  0.0753  2.6394
   44PVA    H32 7363   7.574   0.374   7.604  0.1181 -2.3457 -0.2664
   44PVA    C17 7364   7.520   0.577   7.569  0.4159  0.2198 -0.1560
   44PVA    H33 7365   7.618   0.592   7.521 -0.3130 -0.3755 -1.9105
   44PVA     O6 7366   7.418   0.645   7.500 -0.1366  0.0602  0.5550
   44PVA    H34 7367   7.463   0.705   7.439 -0.1412 -1.4127 -0.9792
   44PVA    C18 7368   7.518   0.629   7.716 -0.3495  0.0533  0.4819
   44PVA    H35 7369   7.589   0.562   7.766 -2.0379 -0.1508  2.7429
   44PVA    H36 7370   7.564   0.728   7.718  1.9566 -0.9509  0.0621
   44PVA    C19 7371   7.392   0.640   7.802  0.6609  0.0312 -1.3363
   44PVA    H37 7372   7.315   0.568   7.772 -0.0897  1.8189 -4.0100
   44PVA    H38 7373   7.341   0.736   7.793 -0.2440 -0.2992 -0.0640
   44PVA    C20 7374   7.427   0.619   7.962  0.5248  0.1893  0.7831
   44PVA    H39 7375   7.495   0.534   7.954  2.3770  1.7564 -1.4163
   44PVA     O7 7376   7.509   0.714   8.041  0.1260  0.0888 -0.4636
   44PVA    H40 7377   7.517   0.671   0.031  0.6823  2.2468  0.6281
   44PVA    C21 7378   7.293   0.588   8.050 -0.4701 -0.0854  1.7099
   44PVA    H41 7379   7.246   0.506   7.994 -4.3823  2.9582 -0.0075
   44PVA    H42 7380   7.227   0.670   8.018 -1.5264 -2.5413 -3.5320
   44PVA    C22 7381   7.323   0.521   0.096  0.3444  0.0118  0.3230
   44PVA    H43 7382   7.417   0.465   0.088 -0.9139 -2.2464  0.3846
   44PVA    H44 7383   7.343   0.609   0.158  0.5764  0.1186  0.0965
   44PVA    C23 7384   7.205   0.429   0.138  0.1484  0.9654  0.6595
   44PVA    H45 7385   7.239   0.337   0.088  1.1605  1.5075  0.3182
   44PVA     O8 7386   7.083   0.469   0.084  0.0461 -0.1984 -0.9109
   44PVA    H46 7387   7.018   0.506   0.147 -3.0252 -0.9383 -3.3998
   44PVA    C24 7388   7.188   0.393   0.281 -0.3140  0.9102  0.8567
   44PVA    H47 7389   7.093   0.338   0.290 -0.7853  1.1831 -1.8111
   44PVA    H48 7390   7.277   0.338   0.315  1.0261  3.5208  1.8590
   44PVA    C25 7391   7.197   0.517   0.378 -0.7220 -0.5908 -0.0663
   44PVA    H49 7392   7.216   0.614   0.330  1.4268 -2.5105 -3.4261
   44PVA    H50 7393   7.283   0.517   0.446 -1.9543  0.7432  1.5917
   44PVA    C26 7394   7.074   0.526   0.471  0.2586 -1.0642 -0.3646
   44PVA    H51 7395   7.057   0.425   0.510 -2.1380 -0.2436  0.9069
   44PVA     O9 7396   6.959   0.556   0.386  0.4807  0.8448  0.5811
   44PVA    H52 7397   6.882   0.526   0.437 -1.7375  1.8486 -1.9131
   44PVA    C27 7398   7.087   0.628   0.588 -0.3962  0.6681 -0.3980
   44PVA    H53 7399   7.182   0.595   0.635  0.2903 -1.3054 -2.9492
   44PVA    H54 7400   7.001   0.617   0.656  0.5916 -1.0888  0.6627
   44PVA    C28 7401   7.100   0.778   0.565  0.4489 -0.6168  0.1770
   44PVA    H55 7402   7.194   0.787   0.510 -0.1816  0.6695 -0.7517
   44PVA    H56 7403   7.009   0.812   0.515  1.7859  1.6521 -0.8539
   44PVA    C29 7404   7.105   0.870   0.688  0.5717 -1.0498 -0.0476
   44PVA    H57 7405   7.052   0.822   0.771  1.9053 -1.7753  0.4284
   44PVA    O10 7406   7.229   0.886   0.742  0.8147 -1.0920 -0.0491
   44PVA    H58 7407   7.257   0.975   0.715  1.5041 -0.1510  3.2844
   44PVA    C30 7408   7.040   1.018   0.677 -0.2522 -0.2999  0.7541
   44PVA    H59 7409   7.110   1.069   0.610  1.4778 -4.7070 -1.2647
   44PVA    H60 7410   6.950   1.017   0.614 -0.7934  2.4011  1.3965
   44PVA    C31 7411   6.997   1.089   0.813  0.2186  0.4553  1.6506
   44PVA    H61 7412   7.079   1.091   0.886 -0.5333  3.6382  2.5610
   44PVA    H62 7413   6.922   1.025   0.859 -0.0770  1.1449  2.1400
   44PVA    C32 7414   6.900   1.212   0.806 -0.0867 -0.4315  0.1878
   44PVA    H63 7415   6.962   1.301   0.794 -3.3619  1.8211 -1.6458
   44PVA    O11 7416   6.850   1.226   0.940 -0.2780 -0.6217 -0.3788
   44PVA    H64 7417   6.901   1.172   1.002  1.7649 -2.2815 -3.2326
   44PVA    C33 7418   6.780   1.219   0.701 -0.2454  0.8008  1.0426
   44PVA    H65 7419   6.824   1.187   0.605  1.2618 -3.2089  2.8459
   44PVA    H66 7420   6.695   1.158   0.733 -1.7187  3.7437  3.2178
   44PVA    C34 7421   6.715   1.355   0.697  0.2455 -0.7166  0.1194
   44PVA    H67 7422   6.802   1.418   0.671 -1.3770  0.0791 -4.2674
   44PVA    H68 7423   6.665   1.368   0.600  1.1913 -1.5833 -0.5018
   44PVA    C35 7424   6.624   1.399   0.816 -0.0872 -1.0388  0.1443
   44PVA    H69 7425   6.648   1.328   0.896 -0.5531  0.0377  1.2887
   44PVA    O12 7426   6.492   1.384   0.776 -0.0778 -0.9145 -0.7018
   44PVA    H70 7427   6.502   1.298   0.730  0.3040 -0.6330 -1.1582
   44PVA    C36 7428   6.668   1.539   0.877 -0.0605  0.6797  0.3901
   44PVA    H71 7429   6.663   1.550   0.986 -4.7682 -0.3284  0.4848
   44PVA    H72 7430   6.775   1.551   0.857 -0.3602  2.5122 -0.3611
   44PVA    C37 7431   6.591   1.656   0.807  0.6103  0.1016 -0.6174
   44PVA    H73 7432   6.559   1.628   0.706 -1.6403  0.0527  0.0640
   44PVA    H74 7433   6.666   1.735   0.799  2.4139 -1.4113  0.4120
   44PVA    C38 7434   6.460   1.701   0.876  0.2529  0.7308 -0.3460
   44PVA    H75 7435   6.436   1.794   0.822 -0.5987  1.4806  1.2494
   44PVA    O13 7436   6.354   1.596   0.875 -0.1552 -0.1390 -0.3839
   44PVA    H76 7437   6.403   1.517   0.848  0.4264 -0.6042  1.8474
   44PVA    C39 7438   6.485   1.736   1.023  0.7856  0.8120 -0.7000
   44PVA    H77 7439   6.566   1.805   1.051 -0.0777  1.8521 -0.7225
   44PVA    H78 7440   6.509   1.655   1.093 -3.4623  0.6283  0.7910
   44PVA    C40 7441   6.369   1.805   1.096 -0.2393 -0.2383 -0.2800
   44PVA    H79 7442   6.353   1.902   1.045 -0.3284 -1.0469 -1.8554
   44PVA    H80 7443   6.271   1.762   1.072 -0.3664  0.0055 -0.2083
   44PVA    C41 7444   6.395   1.816   1.249  0.0215  1.2189  0.0614
   44PVA    H81 7445   6.420   1.713   1.276 -2.5241 -0.2689 -2.7026
   44PVA    O14 7446   6.495   1.925   1.272  0.2245 -0.2959  0.1562
   44PVA    H82 7447   6.486   2.002   1.213  1.0016  0.2162  0.6968
   44PVA    C42 7448   6.260   1.854   1.310  0.2100 -0.3615  0.5525
   44PVA    H83 7449   6.217   1.948   1.276 -1.1897 -1.0143  0.4656
   44PVA    H84 7450   6.192   1.780   1.266  2.1831 -1.5447 -0.6683
   44PVA    C43 7451   6.247   1.837   1.457 -0.3994  0.9189 -0.5570
   44PVA    H85 7452   6.141   1.843   1.486 -0.5671  0.7068 -1.1082
   44PVA    H86 7453   6.298   1.743   1.481  1.4102  1.0251 -3.5150
   44PVA    C44 7454   6.310   1.949   1.535 -0.4367  1.0557  0.3458
   44PVA    H87 7455   6.282   2.044   1.488 -1.3046  0.8289  0.3898
   44PVA    O15 7456   6.451   1.947   1.527  0.0938  0.2560 -0.0296
   44PVA    H88 7457   6.483   1.948   1.435 -0.5212  2.4831 -0.2939
   44PVA    C45 7458   6.269   1.956   1.679  0.6103  0.8256 -0.2238
   44PVA    H89 7459   6.166   1.991   1.696  0.6360  0.2892  1.1625
   44PVA    H90 7460   6.331   2.033   1.727 -0.4494 -0.0842  2.8549
   44PVA    C46 7461   6.274   1.815   1.750  0.4055  1.0494 -0.6660
   44PVA    H91 7462   6.183   1.759   1.725 -0.7700  3.1953 -1.4962
   44PVA    H92 7463   6.360   1.753   1.722  0.5853  1.2422 -0.5410
   44PVA    C47 7464   6.266   1.828   1.910 -0.4887  0.2101  0.9911
   44PVA    H93 7465   6.183   1.885   1.955 -0.3194  1.3022 -0.0078
   44PVA    O16 7466   6.393   1.884   1.955 -0.1109  0.1252 -0.0167
   44PVA    H94 7467   6.412   1.958   1.895 -2.4591  2.0420  1.4127
   44PVA    C48 7468   6.248   1.689   1.981  0.7102 -0.9871 -0.3688
   44PVA    H95 7469   6.180   1.630   1.920 -2.7277  1.5121  0.7561
   44PVA    H96 7470   6.338   1.627   1.989  3.4620  2.5699 -0.8972
   44PVA    C49 7471   6.185   1.702   2.119 -0.2950 -0.2932  1.2236
   44PVA    H97 7472   6.089   1.746   2.090 -0.3853 -1.2821 -0.0070
   44PVA    H98 7473   6.246   1.762   2.189  2.0302 -3.5932  2.2910
   44PVA    C50 7474   6.184   1.570   2.193 -0.3532 -0.3163  0.2426
   44PVA    H99 7475   6.286   1.559   2.232 -0.4750  0.5892  0.8314
   44PVA    O17 7476   6.133   1.462   2.111  0.8600  0.2555  0.3830
   44PVA   H100 7477   6.117   1.506   2.025  0.1044  2.0969  1.4064
   44PVA    C51 7478   6.096   1.574   2.313  0.0833  0.6913 -1.1390
   44PVA   H101 7479   6.150   1.614   2.400 -1.5629 -3.4518  2.1136
   44PVA   H102 7480   5.998   1.622   2.302  0.5174  2.8840  2.6861
   45PVA     C1 7481   0.687   6.550   6.762 -0.2415  0.7111 -0.6659
   45PVA     H1 7482   0.733   6.560   6.662 -4.5845  2.3704 -2.7640
   45PVA     H2 7483   0.597   6.612   6.759  0.9662  2.8440  2.6018
   45PVA     C2 7484   0.616   6.408   6.789  0.5795 -0.3136  0.4273
   45PVA     H3 7485   0.692   6.365   6.856  2.9288  1.2483 -1.0821
   45PVA     O1 7486   0.499   6.431   6.875  0.0213  0.0995 -1.1364
   45PVA     H4 7487   0.420   6.377   6.858 -2.1145  2.3408  0.8942
   45PVA     C3 7488   0.579   6.298   6.682 -0.3819 -1.2568  0.2604
   45PVA     H5 7489   0.647   6.302   6.596  0.1547 -0.8147  0.7010
   45PVA     H6 7490   0.473   6.308   6.655  0.3225  1.3462 -2.0336
   45PVA     C4 7491   0.579   6.140   6.726  0.3265 -1.0835 -0.6774
   45PVA     H7 7492   0.639   6.134   6.818 -0.9804  1.6680  0.4752
   45PVA     H8 7493   0.484   6.118   6.775  2.0434  0.9535  4.1752
   45PVA     C5 7494   0.627   6.035   6.631 -0.4748  0.2478  0.5078
   45PVA     H9 7495   0.734   6.028   6.652  0.1795 -0.2905 -2.5323
   45PVA     O2 7496   0.619   6.077   6.489 -0.1438 -0.3434 -0.6742
   45PVA    H10 7497   0.537   6.128   6.495 -0.4049 -0.8717  3.2281
   45PVA     C6 7498   0.552   5.898   6.663  0.1746  0.7635 -1.2901
   45PVA    H11 7499   0.535   5.884   6.770  1.7707 -5.0680 -1.4554
   45PVA    H12 7500   0.458   5.905   6.607 -0.3133 -2.6902 -1.1515
   45PVA     C7 7501   0.620   5.761   6.618  0.2265 -0.1347  0.0226
   45PVA    H13 7502   0.659   5.726   6.715 -2.3849  2.9097  2.3970
   45PVA    H14 7503   0.701   5.777   6.547 -2.1839  3.0381 -2.2705
   45PVA     C8 7504   0.521   5.637   6.566  0.5166  0.0606 -0.5028
   45PVA    H15 7505   0.471   5.655   6.470  0.8039 -1.1870 -0.8994
   45PVA     O3 7506   0.400   5.630   6.649  1.2551 -0.0291  0.7003
   45PVA    H16 7507   0.443   5.654   6.733 -0.0019  0.8748  1.1146
   45PVA     C9 7508   0.586   5.494   6.562  0.1381  0.5348  0.2778
   45PVA    H17 7509   0.582   5.456   6.665 -0.4623  0.2678  0.1616
   45PVA    H18 7510   0.690   5.521   6.539  0.1766  0.0275 -0.1690
   45PVA    C10 7511   0.527   5.374   6.465  0.5718 -1.1583 -0.1961
   45PVA    H19 7512   0.518   5.399   6.358  0.5638  3.7678  0.7279
   45PVA    H20 7513   0.422   5.382   6.494  0.2687  1.9594 -1.7936
   45PVA    C11 7514   0.572   5.215   6.485  0.5992 -0.4961  0.4798
   45PVA    H21 7515   0.646   5.205   6.564  1.8073  0.6942 -0.4506
   45PVA     O4 7516   0.462   5.159   6.538  0.1574 -0.4939 -0.4652
   45PVA    H22 7517   0.479   5.070   6.573 -1.2084  0.8507  4.4002
   45PVA    C12 7518   0.614   5.135   6.351  0.8578 -0.1181  0.6995
   45PVA    H23 7519   0.722   5.135   6.333  1.2131  1.5160  2.4662
   45PVA    H24 7520   0.572   5.192   6.267  0.8042 -0.0356  0.7821
   45PVA    C13 7521   0.562   4.987   6.336  0.6958  0.4656 -0.2983
   45PVA    H25 7522   0.458   5.002   6.304  0.4458  0.1142  0.3224
   45PVA    H26 7523   0.564   4.932   6.431 -0.7415  0.6791 -0.1243
   45PVA    C14 7524   0.625   4.892   6.223 -0.8751 -0.8159  0.2493
   45PVA    H27 7525   0.597   4.963   6.145 -6.7038 -0.6128  2.0538
   45PVA     O5 7526   0.766   4.870   6.231 -1.4017  0.1475 -0.5117
   45PVA    H28 7527   0.799   4.882   6.140  1.3424 -0.8056  0.2534
   45PVA    C15 7528   0.532   4.766   6.195  0.1740  0.4981  0.3582
   45PVA    H29 7529   0.431   4.798   6.165  0.1836  0.8423  0.6930
   45PVA    H30 7530   0.519   4.739   6.300 -1.8471  4.4154  1.3110
   45PVA    C16 7531   0.588   4.633   6.123 -0.2070  0.6445 -0.0138
   45PVA    H31 7532   0.631   4.678   6.032 -3.7254  0.4351 -1.9456
   45PVA    H32 7533   0.671   4.590   6.181  0.3142 -0.6344 -1.6344
   45PVA    C17 7534   0.496   4.518   6.082  0.1931 -0.1155  0.2202
   45PVA    H33 7535   0.444   4.547   5.990  0.6796 -0.4179 -0.1602
   45PVA     O6 7536   0.406   4.488   6.181 -0.2570  0.6929 -0.2423
   45PVA    H34 7537   0.461   4.467   6.258  0.9497  0.8858 -1.0267
   45PVA    C18 7538   0.574   4.390   6.026  1.2848 -0.8666 -0.8927
   45PVA    H35 7539   0.658   4.446   5.983  1.0303  0.6168  0.4658
   45PVA    H36 7540   0.652   4.335   6.079  0.3694 -3.6969 -2.2656
   45PVA    C19 7541   0.510   4.289   5.922 -0.8228  0.5333  0.4702
   45PVA    H37 7542   0.499   4.338   5.824  1.0588  0.3763  0.1500
   45PVA    H38 7543   0.411   4.278   5.969  0.7573 -5.8205  3.3055
   45PVA    C20 7544   0.591   4.157   5.894 -0.3082  1.3555 -0.1021
   45PVA    H39 7545   0.676   4.148   5.963  0.3748  1.2930 -0.9400
   45PVA     O7 7546   0.513   4.047   5.943 -0.1034 -0.2685 -0.4208
   45PVA    H40 7547   0.429   4.063   5.898 -0.6988  0.0296  0.7615
   45PVA    C21 7548   0.649   4.129   5.745 -0.4085  0.5462  0.5191
   45PVA    H41 7549   0.752   4.165   5.742 -2.1260  6.2973 -0.8237
   45PVA    H42 7550   0.610   4.187   5.661  1.9379  0.8527 -0.4378
   45PVA    C22 7551   0.660   3.970   5.711  0.6023  0.0918 -0.5246
   45PVA    H43 7552   0.731   3.927   5.783  0.5424  1.5315  0.4317
   45PVA    H44 7553   0.566   3.915   5.713  1.1736 -0.9576 -1.4919
   45PVA    C23 7554   0.734   3.958   5.572  0.7282  0.4543 -0.0477
   45PVA    H45 7555   0.695   4.043   5.514 -1.0574 -0.5575 -0.4223
   45PVA     O8 7556   0.873   3.979   5.575  0.3306  0.5556  0.0973
   45PVA    H46 7557   0.899   4.065   5.540  0.7460  0.5143  0.2987
   45PVA    C24 7558   0.707   3.835   5.495 -0.5930  0.1308 -0.1174
   45PVA    H47 7559   0.731   3.748   5.557  0.4025  0.6291  0.2266
   45PVA    H48 7560   0.599   3.823   5.483 -0.2980 -1.0449 -1.8664
   45PVA    C25 7561   0.783   3.824   5.348  0.5715  0.0968  0.1299
   45PVA    H49 7562   0.892   3.810   5.350  0.7101  0.8582  3.2443
   45PVA    H50 7563   0.762   3.921   5.302 -2.6119  0.0391  1.2639
   45PVA    C26 7564   0.710   3.723   5.253  0.2311  0.2496 -0.0006
   45PVA    H51 7565   0.710   3.619   5.288 -0.2301  0.0166 -0.6723
   45PVA     O9 7566   0.577   3.753   5.245 -0.2358 -0.3932 -0.3409
   45PVA    H52 7567   0.581   3.841   5.205  1.0041 -0.1306  0.3272
   45PVA    C27 7568   0.767   3.723   5.103  0.1799  0.7210 -0.6932
   45PVA    H53 7569   0.874   3.744   5.119  0.3042  1.4304 -2.2770
   45PVA    H54 7570   0.734   3.813   5.049  0.9183  1.2159 -0.3328
   45PVA    C28 7571   0.755   3.597   5.005 -0.4149 -0.9048 -0.4089
   45PVA    H55 7572   0.649   3.569   5.004 -0.7033  0.1605 -1.1793
   45PVA    H56 7573   0.819   3.536   5.070 -0.8846  0.4367  1.3884
   45PVA    C29 7574   0.811   3.616   4.858 -0.2568 -0.0706 -0.8773
   45PVA    H57 7575   0.877   3.703   4.872 -1.8576  0.9771  0.6584
   45PVA    O10 7576   0.727   3.677   4.762  0.1859  0.7145 -0.0718
   45PVA    H58 7577   0.727   3.636   4.674 -1.9250  2.4965 -0.9812
   45PVA    C30 7578   0.893   3.502   4.797 -0.6574  0.3580 -0.4871
   45PVA    H59 7579   0.973   3.468   4.865 -1.7981  0.6033  1.0253
   45PVA    H60 7580   0.953   3.543   4.715 -3.1602  5.0390 -0.2937
   45PVA    C31 7581   0.831   3.372   4.731  0.6213 -0.1791  0.3073
   45PVA    H61 7582   0.747   3.326   4.785 -3.6342  2.8800 -2.9456
   45PVA    H62 7583   0.782   3.423   4.647 -0.4702 -2.6794 -0.7025
   45PVA    C32 7584   0.933   3.261   4.673 -0.3512 -0.7820 -0.5539
   45PVA    H63 7585   1.034   3.304   4.671 -0.1547 -1.1991  0.1609
   45PVA    O11 7586   0.889   3.240   4.529  1.1893 -0.8890  0.2374
   45PVA    H64 7587   0.928   3.315   4.480  2.1262 -2.7587 -2.0448
   45PVA    C33 7588   0.926   3.127   4.759 -0.4046 -1.2953  0.1506
   45PVA    H65 7589   0.830   3.073   4.753 -2.2894  1.8017  0.5277
   45PVA    H66 7590   0.922   3.153   4.865 -0.0055  2.0674 -0.5385
   45PVA    C34 7591   1.052   3.024   4.758  1.2006  0.6263 -1.6916
   45PVA    H67 7592   1.028   2.964   4.670  0.1714 -1.1362 -0.2904
   45PVA    H68 7593   1.146   3.080   4.757  1.9324 -0.1613  2.5048
   45PVA    C35 7594   1.055   2.938   4.894 -0.6059  0.8350 -0.3960
   45PVA    H69 7595   1.073   3.014   4.971  0.8097 -0.9619  1.1634
   45PVA    O12 7596   0.932   2.870   4.917  0.8814  0.3545 -0.3180
   45PVA    H70 7597   0.862   2.920   4.872  1.6156  2.2135  0.5376
   45PVA    C36 7598   1.172   2.831   4.900 -1.1855  0.3954  0.1923
   45PVA    H71 7599   1.269   2.882   4.904  1.4279 -3.8566 -1.7438
   45PVA    H72 7600   1.172   2.776   4.805  0.0717 -1.5926  1.2617
   45PVA    C37 7601   1.186   2.746   5.025  0.5136 -0.2045  0.0552
   45PVA    H73 7602   1.084   2.708   5.041 -0.3214  2.2674  1.0184
   45PVA    H74 7603   1.215   2.824   5.096  0.8966 -1.0633  0.8592
   45PVA    C38 7604   1.293   2.636   5.043 -0.7313  0.0969 -0.5501
   45PVA    H75 7605   1.283   2.591   5.143 -1.8775  1.2234 -0.1263
   45PVA    O13 7606   1.429   2.686   5.040 -0.0811 -0.9740  0.2197
   45PVA    H76 7607   1.479   2.603   5.052 -0.9724 -1.2845  2.2021
   45PVA    C39 7608   1.284   2.521   4.946  0.0410  0.5967  0.1775
   45PVA    H77 7609   1.196   2.456   4.957 -0.7407  1.2349 -1.9569
   45PVA    H78 7610   1.294   2.559   4.844 -0.2337 -3.4590 -1.5600
   45PVA    C40 7611   1.380   2.396   4.957 -0.0739  0.8417 -0.6034
   45PVA    H79 7612   1.484   2.431   4.954 -0.8725  3.4974 -0.2355
   45PVA    H80 7613   1.376   2.356   5.059  3.6091  0.8770 -0.3263
   45PVA    C41 7614   1.367   2.284   4.854  0.6421  1.0773 -0.2228
   45PVA    H81 7615   1.267   2.238   4.860  0.9379 -0.5080 -4.3333
   45PVA    O14 7616   1.378   2.344   4.728 -0.1474 -0.7220  0.9235
   45PVA    H82 7617   1.460   2.312   4.687  2.0307  2.0006  2.7742
   45PVA    C42 7618   1.449   2.145   4.866  1.7931  0.7103 -0.5420
   45PVA    H83 7619   1.553   2.173   4.846  1.1910  2.2947 -1.7180
   45PVA    H84 7620   1.445   2.114   4.971  0.6178 -0.8762 -1.0090
   45PVA    C43 7621   1.417   2.034   4.757  0.4060 -0.0931 -0.6553
   45PVA    H85 7622   1.382   2.074   4.661 -0.2383  1.2251  0.0895
   45PVA    H86 7623   1.343   1.965   4.799  1.3193 -1.3955 -1.1446
   45PVA    C44 7624   1.528   1.936   4.717 -0.0984 -0.3105 -0.3586
   45PVA    H87 7625   1.568   1.902   4.813 -0.2372  0.0851 -0.1585
   45PVA    O15 7626   1.619   2.014   4.634  0.0544 -0.1149 -0.7973
   45PVA    H88 7627   1.572   2.055   4.560  1.1151  0.8730 -0.9474
   45PVA    C45 7628   1.488   1.807   4.634 -1.7223 -0.9350 -0.6994
   45PVA    H89 7629   1.477   1.831   4.528  4.0171 -1.4210 -1.7517
   45PVA    H90 7630   1.397   1.762   4.675 -3.3605  1.1333 -1.8512
   45PVA    C46 7631   1.605   1.707   4.632 -0.1830  0.7242 -0.4702
   45PVA    H91 7632   1.706   1.744   4.607 -0.3316  0.3827 -1.6284
   45PVA    H92 7633   1.602   1.678   4.738 -1.8378  1.1204 -0.3813
   45PVA    C47 7634   1.586   1.594   4.533  0.6576  0.2987  0.2186
   45PVA    H93 7635   1.566   1.644   4.438 -1.7043 -2.3703 -0.8587
   45PVA    O16 7636   1.465   1.524   4.577  0.3734  0.3853  0.1764
   45PVA    H94 7637   1.391   1.578   4.612 -0.6460 -0.9166  0.0945
   45PVA    C48 7638   1.714   1.496   4.522 -0.7240 -0.1182  0.0522
   45PVA    H95 7639   1.773   1.533   4.438 -3.0799  2.0442 -0.7701
   45PVA    H96 7640   1.767   1.526   4.613 -1.9960  0.8553  0.4946
   45PVA    C49 7641   1.693   1.338   4.536  0.1793 -0.5740  0.3230
   45PVA    H97 7642   1.620   1.302   4.462  0.9233 -1.6052  0.0607
   45PVA    H98 7643   1.653   1.318   4.636  0.6791  0.8561  0.8397
   45PVA    C50 7644   1.816   1.255   4.508  0.0514 -0.3636 -0.3546
   45PVA    H99 7645   1.895   1.283   4.579  2.8394 -2.6615 -2.3556
   45PVA    O17 7646   1.872   1.283   4.378  0.9115 -0.8512  0.1462
   45PVA   H100 7647   1.951   1.236   4.345  3.0591  2.8272 -0.5928
   45PVA    C51 7648   1.812   1.096   4.540  1.1032 -0.1598 -0.2675
   45PVA   H101 7649   1.732   1.034   4.497 -0.6515  0.1275  2.3470
   45PVA   H102 7650   1.801   1.101   4.649  1.9721  0.6675 -0.2088
   46PVA     C1 7651   5.245   0.909   2.408  0.4329 -0.4617 -0.0719
   46PVA     H1 7652   5.214   0.947   2.309 -1.0551  0.6330  0.7802
   46PVA     H2 7653   5.324   0.833   2.398  0.6250 -0.4195  1.0872
   46PVA     C2 7654   5.115   0.842   2.483  0.1991  0.6836 -0.8599
   46PVA     H3 7655   5.029   0.896   2.440  0.7032  1.0460 -1.4246
   46PVA     O1 7656   5.110   0.856   2.626  0.2153  0.5450 -0.6454
   46PVA     H4 7657   5.036   0.813   2.672  1.6244 -0.1921  1.0513
   46PVA     C3 7658   5.087   0.690   2.457 -0.6242 -0.7078  0.5530
   46PVA     H5 7659   5.116   0.628   2.543  4.1319  0.7064  0.2145
   46PVA     H6 7660   5.136   0.661   2.363 -0.5091  0.9524  0.0738
   46PVA     C4 7661   4.944   0.645   2.431 -0.5114 -0.2677  0.7370
   46PVA     H7 7662   4.881   0.716   2.485  3.9546  3.0493  2.2393
   46PVA     H8 7663   4.910   0.664   2.328  2.6314  0.8781 -0.2249
   46PVA     C5 7664   4.892   0.503   2.468  0.5305  0.1464  0.4558
   46PVA     H9 7665   4.944   0.415   2.428  1.1930  0.2513  1.0470
   46PVA     O2 7666   4.908   0.477   2.609  0.2448  0.9064 -0.1224
   46PVA    H10 7667   4.866   0.547   2.661 -0.0000  1.3307 -0.8699
   46PVA     C6 7668   4.744   0.475   2.412  0.2384 -0.5962  0.8926
   46PVA    H11 7669   4.672   0.556   2.426  1.0849 -0.1581  3.1824
   46PVA    H12 7670   4.735   0.471   2.303 -3.3531  1.0552  0.9736
   46PVA     C7 7671   4.690   0.341   2.472  0.3366  0.9913  0.7176
   46PVA    H13 7672   4.687   0.367   2.578  0.5491 -2.9081  1.8579
   46PVA    H14 7673   4.764   0.261   2.482 -0.2442  0.4104  0.4946
   46PVA     C8 7674   4.557   0.273   2.407  0.4993  0.3742  0.6742
   46PVA    H15 7675   4.487   0.356   2.392 -1.3786 -1.0232  1.3409
   46PVA     O3 7676   4.585   0.233   2.271  0.4376 -0.2127  1.0630
   46PVA    H16 7677   4.532   0.301   2.225 -1.5746 -1.8209  0.9041
   46PVA     C9 7678   4.471   0.173   2.490 -0.0283 -1.6746  1.9792
   46PVA    H17 7679   4.428   0.241   2.565  0.3520 -0.2994  0.9894
   46PVA    H18 7680   4.535   0.094   2.530  2.9102 -1.3417 -1.5424
   46PVA    C10 7681   4.353   0.101   2.417 -0.9011 -0.0328 -0.3395
   46PVA    H19 7682   4.265   0.166   2.421 -2.9829 -2.6940  3.0450
   46PVA    H20 7683   4.369   0.087   2.309  0.4515  3.0083 -0.6181
   46PVA    C11 7684   4.300   7.658   2.464 -0.1234  0.5499 -1.0575
   46PVA    H21 7685   4.372   7.576   2.453  1.6858  1.8226  0.5882
   46PVA     O4 7686   4.296   0.006   2.607  0.6818 -0.2380 -0.9738
   46PVA    H22 7687   4.302   7.605   2.652  2.4890  0.6733  0.6966
   46PVA    C12 7688   4.154   7.630   2.419  0.2886 -1.5685 -0.3987
   46PVA    H23 7689   4.105   0.043   2.425  2.6540 -0.3463  0.2636
   46PVA    H24 7690   4.163   7.627   2.310  0.1604  0.5628 -0.4959
   46PVA    C13 7691   4.085   7.511   2.501  0.1915  0.9819  0.2591
   46PVA    H25 7692   4.138   7.516   2.597  3.4587  1.4203 -1.4186
   46PVA    H26 7693   4.124   7.427   2.442  0.7391  3.2990 -2.9107
   46PVA    C14 7694   3.928   7.488   2.510 -1.5365  0.1233 -0.7384
   46PVA    H27 7695   3.891   7.571   2.570 -0.9561 -0.5228  0.5526
   46PVA     O5 7696   3.886   7.504   2.378 -0.0131  0.1017  0.0868
   46PVA    H28 7697   3.937   7.443   2.322 -3.0190 -1.0035 -1.6567
   46PVA    C15 7698   3.871   7.348   2.558 -0.3618 -1.1715 -0.4310
   46PVA    H29 7699   3.764   7.335   2.539 -1.2915  1.8958  1.9940
   46PVA    H30 7700   3.926   7.274   2.497  0.7982  1.1056 -2.3042
   46PVA    C16 7701   3.905   7.302   2.700 -0.5212 -0.4303  1.2584
   46PVA    H31 7702   3.948   7.202   2.690 -0.8967 -0.6386  1.6905
   46PVA    H32 7703   3.982   7.367   2.742 -1.9201  1.4482  1.0620
   46PVA    C17 7704   3.779   7.271   2.783  0.5383 -0.0327 -1.5768
   46PVA    H33 7705   3.729   7.191   2.727 -0.2763  3.0381 -5.8360
   46PVA     O6 7706   3.696   7.393   2.790 -0.0709  0.2778  1.0353
   46PVA    H34 7707   3.755   7.462   2.826 -0.4326  2.1506 -1.6087
   46PVA    C18 7708   3.790   7.223   2.927  0.6370  0.0302 -1.0474
   46PVA    H35 7709   3.894   7.193   2.943  1.3080  1.8137 -1.7688
   46PVA    H36 7710   3.765   7.310   2.989 -4.5389 -3.5266  2.6939
   46PVA    C19 7711   3.694   7.122   3.006 -0.5539  0.5988  0.7025
   46PVA    H37 7712   3.587   7.136   2.986 -0.3109 -0.2706 -1.5005
   46PVA    H38 7713   3.694   7.151   3.111  1.4778 -0.3985  1.0232
   46PVA    C20 7714   3.730   6.972   2.994 -0.1109 -0.7878 -0.0070
   46PVA    H39 7715   3.745   6.955   2.887 -0.9596  1.8819 -0.6369
   46PVA     O7 7716   3.847   6.947   3.078 -0.7357  1.6494 -0.2852
   46PVA    H40 7717   3.870   6.852   3.076 -1.9900  1.2516  1.5726
   46PVA    C21 7718   3.625   6.863   3.052 -0.0945  0.0920 -1.0244
   46PVA    H41 7719   3.538   6.858   2.985 -0.4404  0.7305 -0.6430
   46PVA    H42 7720   3.587   6.907   3.146  2.3307 -1.6690  0.9028
   46PVA    C22 7721   3.669   6.706   3.059 -0.0085  0.0627 -0.5256
   46PVA    H43 7722   3.705   6.649   2.972  2.0864 -1.4454  1.2405
   46PVA    H44 7723   3.770   6.715   3.100  0.9639 -2.3884 -2.1251
   46PVA    C23 7724   3.586   6.613   3.160  0.1581 -0.4069  0.7276
   46PVA    H45 7725   3.532   6.532   3.110  4.0146 -1.4640 -2.2122
   46PVA     O8 7726   3.505   6.696   3.244 -0.0796  0.7897  0.4320
   46PVA    H46 7727   3.453   6.751   3.182 -0.7181 -1.5566 -1.2650
   46PVA    C24 7728   3.681   6.537   3.259  0.0866  0.3399  0.4510
   46PVA    H47 7729   3.736   6.466   3.197  2.5303  2.0967  0.4287
   46PVA    H48 7730   3.768   6.598   3.288 -1.1610  2.3785  0.1773
   46PVA    C25 7731   3.635   6.473   3.399  0.0533 -0.4410  1.5197
   46PVA    H49 7732   3.576   6.390   3.359 -1.3939  2.3357 -2.9046
   46PVA    H50 7733   3.554   6.539   3.431 -1.9456  0.6153 -4.4044
   46PVA    C26 7734   3.752   6.445   3.498 -0.0021 -0.0442 -0.1571
   46PVA    H51 7735   3.771   6.542   3.544 -4.0297  1.1375 -0.5683
   46PVA     O9 7736   3.864   6.421   3.422 -0.1257  0.2643 -0.2058
   46PVA    H52 7737   3.860   6.324   3.426 -1.3177  0.3225  1.7575
   46PVA    C27 7738   3.715   6.332   3.605 -0.2165  0.5664 -0.0746
   46PVA    H53 7739   3.798   6.260   3.601 -0.1324  0.5185  1.8384
   46PVA    H54 7740   3.623   6.282   3.570  0.2613 -0.7973  0.5404
   46PVA    C28 7741   3.694   6.381   3.745 -0.3892 -0.3431 -0.2596
   46PVA    H55 7742   3.791   6.405   3.790  1.5599 -0.3617 -4.0575
   46PVA    H56 7743   3.654   6.483   3.754 -1.4703 -0.8672  1.1818
   46PVA    C29 7744   3.617   6.305   3.855  0.8965  0.8625  0.2962
   46PVA    H57 7745   3.676   6.276   3.942  1.4840  0.6908 -0.1515
   46PVA    O10 7746   3.557   6.192   3.782 -0.3667 -0.5029  0.0927
   46PVA    H58 7747   3.573   6.112   3.834 -1.7120 -0.6512  0.3174
   46PVA    C30 7748   3.492   6.390   3.924 -0.1059  0.0543 -1.1916
   46PVA    H59 7749   3.539   6.487   3.946  1.7244 -0.5121 -2.3796
   46PVA    H60 7750   3.395   6.390   3.873  0.5902 -2.0627 -2.6210
   46PVA    C31 7751   3.449   6.342   4.068 -0.3103 -0.1930 -0.1124
   46PVA    H61 7752   3.538   6.365   4.128  2.4609 -1.5397 -3.3301
   46PVA    H62 7753   3.432   6.234   4.076 -0.0327 -0.6000 -3.4922
   46PVA    C32 7754   3.316   6.413   4.118  0.7374 -0.2381  0.0226
   46PVA    H63 7755   3.332   6.520   4.097 -2.0405 -0.0013 -1.2967
   46PVA    O11 7756   3.207   6.363   4.037  1.0616  0.5480  0.8102
   46PVA    H64 7757   3.118   6.389   4.065  0.2697  2.2476 -2.6882
   46PVA    C33 7758   3.277   6.402   4.266 -0.8312  0.1015  0.2873
   46PVA    H65 7759   3.356   6.425   4.338  0.1016 -3.1580  0.4512
   46PVA    H66 7760   3.235   6.301   4.276 -1.8478  0.6179  1.5831
   46PVA    C34 7761   3.149   6.495   4.299 -0.6008  2.0053 -1.1163
   46PVA    H67 7762   3.083   6.527   4.217  0.1941  3.7942 -1.0964
   46PVA    H68 7763   3.076   6.421   4.333 -2.9198  3.0519 -3.4825
   46PVA    C35 7764   3.172   6.609   4.396 -0.3173 -0.2704  0.2592
   46PVA    H69 7765   3.278   6.633   4.381  0.2290 -1.1508  2.3711
   46PVA    O12 7766   3.181   6.561   4.527  0.1397 -0.3241  0.0009
   46PVA    H70 7767   3.134   6.612   4.595 -0.4280  1.8161 -1.8609
   46PVA    C36 7768   3.071   6.732   4.378  0.9482 -0.4058 -0.5762
   46PVA    H71 7769   3.074   6.758   4.272  0.5731  0.3387 -0.4127
   46PVA    H72 7770   2.966   6.707   4.397  1.1029 -1.4915 -1.0948
   46PVA    C37 7771   3.117   6.853   4.460  0.2040  1.0739  0.5556
   46PVA    H73 7772   3.227   6.855   4.465  0.1402  1.3624  2.3567
   46PVA    H74 7773   3.125   6.830   4.567 -0.9151 -0.2597  0.3858
   46PVA    C38 7774   3.076   6.998   4.424  0.3855  0.4141 -0.4750
   46PVA    H75 7775   2.970   6.982   4.404 -0.0955 -1.6802  2.8870
   46PVA    O13 7776   3.145   7.042   4.312 -0.3720  0.6803 -0.0548
   46PVA    H76 7777   3.242   7.040   4.326 -0.3191 -0.8252 -0.4649
   46PVA    C39 7778   3.080   7.111   4.529  0.0245  0.5016  0.4599
   46PVA    H77 7779   3.172   7.096   4.587 -1.0233  1.3072  2.4092
   46PVA    H78 7780   3.015   7.081   4.611  1.4357 -0.2282  1.3474
   46PVA    C40 7781   3.066   7.267   4.494 -0.6937  0.0387  0.4652
   46PVA    H79 7782   3.156   7.312   4.450 -2.2102  1.7839 -1.0201
   46PVA    H80 7783   2.981   7.259   4.425 -1.4443 -0.3760  1.4106
   46PVA    C41 7784   3.032   7.364   4.607  0.4835 -0.3243  1.1509
   46PVA    H81 7785   2.963   7.315   4.677 -2.8729  3.0697  0.4899
   46PVA    O14 7786   3.163   7.405   4.662 -0.0302 -0.2947  0.3943
   46PVA    H82 7787   3.205   7.352   4.732  1.5491  1.9143  1.2188
   46PVA    C42 7788   2.964   7.505   4.562 -0.2864  0.4315  0.3625
   46PVA    H83 7789   3.045   7.577   4.540  0.2710  0.1291  1.3390
   46PVA    H84 7790   2.933   7.494   4.458 -1.2581 -0.9239  0.7665
   46PVA    C43 7791   2.851   7.581   4.641 -0.0552 -0.0931  0.7713
   46PVA    H85 7792   2.904   7.598   4.735  1.3164  1.8817 -0.2544
   46PVA    H86 7793   2.762   7.527   4.673  0.6792 -1.1971  1.0150
   46PVA    C44 7794   2.786   0.033   4.584  0.1457  1.2618 -0.0515
   46PVA    H87 7795   2.846   0.125   4.588 -3.2732  3.6667  4.0393
   46PVA    O15 7796   2.779   7.682   4.440 -0.5364  0.4925 -0.2819
   46PVA    H88 7797   2.741   7.594   4.427 -0.4429 -0.2152  3.3735
   46PVA    C45 7798   2.633   0.056   4.621 -1.1245  0.2602 -0.3420
   46PVA    H89 7799   2.630   0.061   4.730  0.6203 -0.6613 -0.2163
   46PVA    H90 7800   2.564   7.657   4.604 -2.3996  1.4788 -1.4482
   46PVA    C46 7801   2.568   0.177   4.557  0.7434  0.6059 -1.6485
   46PVA    H91 7802   2.634   0.264   4.562  0.3374  1.0147  4.1877
   46PVA    H92 7803   2.530   0.153   4.457 -1.9783  1.3958 -0.9073
   46PVA    C47 7804   2.434   0.226   4.634 -0.3342 -0.0988  0.1920
   46PVA    H93 7805   2.454   0.236   4.741 -2.5611 -3.4280  1.0824
   46PVA    O16 7806   2.312   0.147   4.614 -0.6875  0.1871 -0.5895
   46PVA    H94 7807   2.341   0.057   4.591 -2.3915 -0.3115 -0.8989
   46PVA    C48 7808   2.386   0.377   4.608 -0.5053 -0.4664 -0.5119
   46PVA    H95 7809   2.461   0.451   4.638  1.4050 -4.0520  5.1387
   46PVA    H96 7810   2.411   0.385   4.502 -0.8129 -0.7572 -0.6085
   46PVA    C49 7811   2.250   0.452   4.617 -0.3189  0.5757 -0.3801
   46PVA    H97 7812   2.204   0.399   4.702 -0.2326 -2.1539 -1.9314
   46PVA    H98 7813   2.184   0.429   4.533 -0.5230 -0.6007  0.0871
   46PVA    C50 7814   2.272   0.607   4.620  0.5194  0.2462 -0.5685
   46PVA    H99 7815   2.319   0.639   4.714 -2.8151 -2.1811  2.1525
   46PVA    O17 7816   2.346   0.648   4.515 -0.3017 -0.0206  0.0331
   46PVA   H100 7817   2.334   0.744   4.505  0.5028  0.5962  3.6395
   46PVA    C51 7818   2.146   0.699   4.609  0.9993 -0.7798 -0.6832
   46PVA   H101 7819   2.080   0.644   4.540 -0.0563 -1.2483  0.6577
   46PVA   H102 7820   2.093   0.698   4.705  0.4333 -1.4118 -0.9870
   47PVA     C1 7821   5.584   1.077   2.759  0.6346 -0.5045  1.9365
   47PVA     H1 7822   5.506   1.140   2.804  0.8654  0.5138  0.9640
   47PVA     H2 7823   5.588   0.978   2.805  0.6251 -0.4361  2.0836
   47PVA     C2 7824   5.730   1.142   2.778  0.3615 -1.0212  1.0695
   47PVA     H3 7825   5.713   1.237   2.726  2.0157 -0.5085  1.4108
   47PVA     O1 7826   5.835   1.060   2.726  0.5251  0.7349  0.4365
   47PVA     H4 7827   5.901   1.118   2.684 -1.6061  2.0011 -1.3755
   47PVA     C3 7828   5.759   1.158   2.925  0.5883  0.5668 -1.2376
   47PVA     H5 7829   5.677   1.224   2.956 -0.5335 -0.1724 -2.5220
   47PVA     H6 7830   5.850   1.218   2.940  0.6350 -0.1964  2.4216
   47PVA     C4 7831   5.767   1.033   3.027 -1.3212 -0.7052  0.0805
   47PVA     H7 7832   5.791   1.085   3.121 -0.0201 -0.8518 -0.1474
   47PVA     H8 7833   5.668   0.991   3.048 -1.0604 -1.2009  0.3386
   47PVA     C5 7834   5.876   0.923   2.997 -0.7869  0.0348  1.3197
   47PVA     H9 7835   5.816   0.854   2.936  1.6552 -0.5664 -0.5636
   47PVA     O2 7836   5.999   0.967   2.934 -0.2562  0.0673  0.3118
   47PVA    H10 7837   5.962   0.984   2.846 -1.5735 -0.0114  0.8319
   47PVA     C6 7838   5.904   0.850   3.135  0.0439 -0.1978  0.3927
   47PVA    H11 7839   5.921   0.933   3.205 -2.2582  2.0697 -1.5593
   47PVA    H12 7840   5.809   0.808   3.166 -0.8121  1.6306  0.4046
   47PVA     C7 7841   6.011   0.731   3.146 -0.2784  0.1984  0.6513
   47PVA    H13 7842   5.981   0.651   3.078  1.6944 -0.0729  0.0258
   47PVA    H14 7843   6.107   0.765   3.105 -0.6489 -1.4147 -1.7633
   47PVA     C8 7844   6.026   0.681   3.294 -0.1214 -0.2650  0.2273
   47PVA    H15 7845   6.086   0.751   3.354  0.7773  1.5254 -2.5821
   47PVA     O3 7846   5.894   0.682   3.368  0.6957  0.8279 -1.3382
   47PVA    H16 7847   5.897   0.666   3.464 -1.7275  0.2143 -1.2904
   47PVA     C9 7848   6.088   0.539   3.310  0.4998 -1.4393  0.0509
   47PVA    H17 7849   6.196   0.558   3.304  0.3671 -0.7271 -0.2307
   47PVA    H18 7850   6.043   0.503   3.216 -1.3645  0.3648  0.1791
   47PVA    C10 7851   6.042   0.453   3.432 -1.0418 -0.5809  0.4455
   47PVA    H19 7852   6.124   0.391   3.470  2.1898  0.8729 -3.3962
   47PVA    H20 7853   6.015   0.526   3.509 -1.6799 -3.2653  2.9679
   47PVA    C11 7854   5.925   0.350   3.428 -0.6643 -0.2215  1.3293
   47PVA    H21 7855   5.835   0.412   3.432  0.8243  2.7789 -3.6529
   47PVA     O4 7856   5.928   0.277   3.309  1.2979  0.2327 -0.6336
   47PVA    H22 7857   5.856   0.317   3.257  0.5656  2.6317  1.9784
   47PVA    C12 7858   5.934   0.253   3.542  0.5160  0.3114  0.4703
   47PVA    H23 7859   6.030   0.201   3.529  0.3771  0.3958 -1.1598
   47PVA    H24 7860   5.945   0.307   3.636 -1.8068 -0.0460  1.0038
   47PVA    C13 7861   5.813   0.142   3.559 -0.7429  1.4227 -0.0556
   47PVA    H25 7862   5.870   0.051   3.582 -0.4188  1.5375 -0.4034
   47PVA    H26 7863   5.787   0.119   3.455  1.1456  2.6595 -0.8408
   47PVA    C14 7864   5.687   0.167   3.649 -0.1694  0.4151 -0.1306
   47PVA    H27 7865   5.727   0.172   3.750  0.9692  0.4921 -0.5720
   47PVA     O5 7866   5.614   0.285   3.606 -1.7304  0.2258  0.4859
   47PVA    H28 7867   5.546   0.266   3.540  1.3052 -1.7215 -2.4361
   47PVA    C15 7868   5.572   0.052   3.668 -0.5006  0.2614  0.8738
   47PVA    H29 7869   5.626   7.642   3.681 -3.4393 -1.8322 -0.9399
   47PVA    H30 7870   5.515   0.044   3.574 -1.0536  0.0753  1.2221
   47PVA    C16 7871   5.493   0.072   3.801  1.2391 -0.2815  0.1755
   47PVA    H31 7872   5.560   0.086   3.887 -1.2114 -1.3872  2.4135
   47PVA    H32 7873   5.442   0.169   3.791 -0.5815 -1.3884 -2.3868
   47PVA    C17 7874   5.383   7.636   3.827  0.6848  1.4361 -0.5536
   47PVA    H33 7875   5.290   7.682   3.864  0.4590 -0.8252  1.9913
   47PVA     O6 7876   5.371   7.560   3.708 -0.6760  0.4533 -0.1851
   47PVA    H34 7877   5.360   7.622   3.633 -1.6185  3.5932  2.3182
   47PVA    C18 7878   5.405   7.535   3.946  0.0228 -0.4497 -0.0490
   47PVA    H35 7879   5.331   7.456   3.929 -3.2095  2.2207  0.4329
   47PVA    H36 7880   5.496   7.474   3.946 -0.4942 -1.3215  2.1615
   47PVA    C19 7881   5.387   7.596   4.083  0.5398 -0.8601 -1.2743
   47PVA    H37 7882   5.306   7.671   4.079  0.8876 -0.3404  0.5154
   47PVA    H38 7883   5.478   7.645   4.121 -0.1879  0.4399 -1.1523
   47PVA    C20 7884   5.356   7.505   4.203 -0.6713  0.0051  1.3791
   47PVA    H39 7885   5.250   7.478   4.193 -0.6654 -1.0255  3.4913
   47PVA     O7 7886   5.438   7.385   4.219 -1.0883 -0.3453 -0.5368
   47PVA    H40 7887   5.423   7.320   4.148 -0.2330 -1.0939 -0.0583
   47PVA    C21 7888   5.363   7.578   4.346 -0.6895  1.2517  0.9481
   47PVA    H41 7889   5.301   7.669   4.348 -0.1034  1.7398 -1.0162
   47PVA    H42 7890   5.472   7.588   4.350  0.6136 -4.1042 -5.2039
   47PVA    C22 7891   5.291   7.487   4.455  0.4477 -0.2936  0.4466
   47PVA    H43 7892   5.195   7.456   4.412  1.8323 -3.1450 -0.8836
   47PVA    H44 7893   5.335   7.386   4.462 -1.3076 -1.2558 -1.2764
   47PVA    C23 7894   5.281   7.550   4.595  0.3798  0.5691  0.3236
   47PVA    H45 7895   5.384   7.549   4.630  0.6797 -1.3028 -0.4466
   47PVA     O8 7896   5.230   7.679   4.577 -0.4524  0.9672  0.6383
   47PVA    H46 7897   5.251   0.030   4.665  2.4649  0.3721  0.3043
   47PVA    C24 7898   5.182   7.474   4.686  0.4178 -0.0544 -0.0627
   47PVA    H47 7899   5.092   7.442   4.633 -0.6623 -0.0820  1.6927
   47PVA    H48 7900   5.223   7.375   4.709 -1.5914 -0.6860  1.0892
   47PVA    C25 7901   5.157   7.534   4.823  0.4251 -0.0714 -0.4104
   47PVA    H49 7902   5.127   7.640   4.824 -2.7557 -0.8539  1.3807
   47PVA    H50 7903   5.261   7.539   4.858  0.7325 -1.4537 -1.0828
   47PVA    C26 7904   5.055   7.464   4.922  0.3825 -0.1437 -0.2298
   47PVA    H51 7905   5.067   7.355   4.921 -4.5926 -1.1194  4.1000
   47PVA     O9 7906   4.935   7.508   4.852 -0.4529  0.1424  0.1274
   47PVA    H52 7907   4.956   7.514   4.757  5.3999  0.3930  1.0690
   47PVA    C27 7908   5.049   7.531   5.056  0.5607 -0.1924  0.3204
   47PVA    H53 7909   4.985   7.620   5.064  2.7786  1.4759  0.6084
   47PVA    H54 7910   5.147   7.573   5.082 -0.0496  0.9224  0.9092
   47PVA    C28 7911   4.977   7.440   5.162  0.6165 -0.1129 -0.0640
   47PVA    H55 7912   4.888   7.410   5.105  1.0041  2.2354 -2.0979
   47PVA    H56 7913   5.030   7.351   5.199 -1.0014  0.1120  3.1293
   47PVA    C29 7914   4.929   7.517   5.291 -1.0725  0.2549 -0.1168
   47PVA    H57 7915   4.882   7.613   5.266  0.5754  1.4560  1.1172
   47PVA    O10 7916   5.056   7.555   5.348 -0.1009  0.0992 -0.5528
   47PVA    H58 7917   5.052   7.608   5.430  1.9654 -0.5152 -0.0153
   47PVA    C30 7918   4.855   7.424   5.399  0.6419  0.6650  1.4026
   47PVA    H59 7919   4.755   7.410   5.356  0.3310 -2.0533  2.7755
   47PVA    H60 7920   4.918   7.334   5.407  0.4716  0.5849  1.8334
   47PVA    C31 7921   4.844   7.471   5.545 -0.8969 -0.5097  0.8632
   47PVA    H61 7922   4.807   7.570   5.517  1.9289  0.8133  1.4739
   47PVA    H62 7923   4.940   7.480   5.597 -1.7248  1.0803  2.2136
   47PVA    C32 7924   4.741   7.398   5.648 -0.0273 -0.4148  0.4177
   47PVA    H63 7925   4.641   7.396   5.603  0.2298 -1.8160 -0.1508
   47PVA    O11 7926   4.791   7.267   5.681 -0.3660 -0.7022  1.6485
   47PVA    H64 7927   4.873   7.305   5.715 -0.4215  0.7827  0.2831
   47PVA    C33 7928   4.730   7.490   5.773  0.9339  0.9366 -0.6896
   47PVA    H65 7929   4.709   7.593   5.744 -4.0315  1.7037  3.9532
   47PVA    H66 7930   4.822   7.482   5.832 -0.4290 -2.6500  1.3130
   47PVA    C34 7931   4.606   7.451   5.875  0.6533 -0.1072 -0.0526
   47PVA    H67 7932   4.599   7.346   5.906  2.5097  0.7786  4.0121
   47PVA    H68 7933   4.626   7.505   5.968  1.1250 -1.0159  0.3921
   47PVA    C35 7934   4.460   7.521   5.828  0.4174  0.5828  0.2817
   47PVA    H69 7935   4.402   7.457   5.761 -2.1354  1.0426  1.8993
   47PVA    O12 7936   4.496   7.634   5.793 -0.0953 -1.2959 -0.3683
   47PVA    H70 7937   4.484   7.638   5.697  1.1473  0.7276 -0.5143
   47PVA    C36 7938   4.367   7.529   5.946  1.1798 -0.8485  0.0104
   47PVA    H71 7939   4.391   7.629   5.984  0.0301  0.0964 -1.6058
   47PVA    H72 7940   4.397   7.452   6.018  0.2731 -1.0132  0.2257
   47PVA    C37 7941   4.218   7.532   5.897  0.2209 -0.8872  0.4344
   47PVA    H73 7942   4.194   7.437   5.847 -0.5196 -0.6797  0.3905
   47PVA    H74 7943   4.180   7.601   5.821  0.9472 -0.4237  0.4856
   47PVA    C38 7944   4.120   7.528   6.023 -0.6197  0.9242  0.7172
   47PVA    H75 7945   4.091   7.630   6.048 -1.1030  0.1240  3.8071
   47PVA    O13 7946   4.180   7.481   6.146 -0.4701 -0.4674  0.3589
   47PVA    H76 7947   4.148   7.396   6.180  0.4013 -0.3424  1.5540
   47PVA    C39 7948   3.986   7.461   5.982 -0.1187  0.1462 -0.2519
   47PVA    H77 7949   4.019   7.362   5.949 -0.0522  1.3780 -4.4186
   47PVA    H78 7950   3.956   7.508   5.887  1.4138  0.8985 -0.3993
   47PVA    C40 7951   3.875   7.468   6.091 -0.2849 -0.1339  0.0142
   47PVA    H79 7952   3.825   7.561   6.065  4.0154  2.0525 -1.4644
   47PVA    H80 7953   3.918   7.490   6.189 -0.8993 -0.5148  0.3715
   47PVA    C41 7954   3.786   7.349   6.115 -0.7270  0.2269  0.3722
   47PVA    H81 7955   3.711   7.341   6.034 -0.6114 -0.3958  0.3193
   47PVA    O14 7956   3.865   7.232   6.145 -0.0344  1.0902 -0.6168
   47PVA    H82 7957   3.943   7.211   6.090  0.6386  2.5931 -0.3149
   47PVA    C42 7958   3.688   7.358   6.240 -0.7306 -0.9449 -0.1145
   47PVA    H83 7959   3.737   7.305   6.322  0.2629 -0.4536 -0.3766
   47PVA    H84 7960   3.684   7.462   6.274 -0.7708 -0.3040 -2.0088
   47PVA    C43 7961   3.527   7.325   6.236  0.1897 -0.5340  0.5296
   47PVA    H85 7962   3.478   7.404   6.178  2.1584 -0.2245 -0.8361
   47PVA    H86 7963   3.517   7.233   6.177  0.7431 -2.9115  3.9169
   47PVA    C44 7964   3.447   7.294   6.369 -0.0567 -0.1205  0.3582
   47PVA    H87 7965   3.501   7.314   6.462 -1.0151 -2.4748  1.5044
   47PVA    O15 7966   3.423   7.149   6.387  0.0049 -0.5533  0.1570
   47PVA    H88 7967   3.452   7.116   6.300  1.5301  1.0862  0.0004
   47PVA    C45 7968   3.312   7.376   6.363 -0.4697  0.5458  0.2568
   47PVA    H89 7969   3.238   7.298   6.341 -0.3574  0.9839 -1.9662
   47PVA    H90 7970   3.302   7.440   6.274 -0.0694  1.6482  0.9955
   47PVA    C46 7971   3.276   7.450   6.494 -0.6818  1.0393 -0.1322
   47PVA    H91 7972   3.297   7.396   6.587 -2.4484  1.2248  0.4175
   47PVA    H92 7973   3.341   7.537   6.506  0.1221  0.9439 -3.1618
   47PVA    C47 7974   3.133   7.510   6.514 -0.2329 -0.1440  1.3036
   47PVA    H93 7975   3.066   7.445   6.572 -0.0277 -3.1496 -1.5598
   47PVA    O16 7976   3.094   7.550   6.381  0.1807  0.1221 -0.9530
   47PVA    H94 7977   3.075   7.481   6.315 -0.4017  0.9797 -1.7108
   47PVA    C48 7978   3.156   7.643   6.596 -1.9394 -0.8258 -0.5645
   47PVA    H95 7979   3.204   7.613   6.690  0.6268  0.4575 -1.3591
   47PVA    H96 7980   3.230   0.027   6.553  1.9106 -3.7444  0.8139
   47PVA    C49 7981   3.031   0.029   6.647 -0.4563 -0.2795  0.0151
   47PVA    H97 7982   2.978   7.648   6.717 -3.1498  2.0829  0.3870
   47PVA    H98 7983   2.974   0.056   6.557  2.7184  2.0812 -1.4889
   47PVA    C50 7984   3.052   0.158   6.731 -0.1587  0.0090  0.5009
   47PVA    H99 7985   3.016   0.132   6.831 -2.0668  0.5470 -0.0172
   47PVA    O17 7986   3.194   0.208   6.741  0.1418  0.2540  0.0190
   47PVA   H100 7987   3.203   0.260   6.660  0.3415 -0.7755 -0.6476
   47PVA    C51 7988   2.949   0.265   6.696 -0.9905 -0.9919 -0.3817
   47PVA   H101 7989   2.845   0.233   6.703 -1.2687  0.3137  2.6366
   47PVA   H102 7990   2.988   0.322   6.610 -0.4165 -1.2034 -0.2697
   48PVA     C1 7991   1.724   0.633   4.034  0.1460 -0.8872 -0.3167
   48PVA     H1 7992   1.701   0.540   4.088 -2.4453 -0.8525 -1.1850
   48PVA     H2 7993   1.646   0.654   3.959  2.2891  0.4625 -2.2970
   48PVA     C2 7994   1.714   0.755   4.130  0.0760  0.1020  1.0827
   48PVA     H3 7995   1.777   0.834   4.088 -1.5250 -0.4867 -2.8887
   48PVA     O1 7996   1.596   0.831   4.112 -0.3385 -0.0151 -0.6939
   48PVA     H4 7997   1.612   0.922   4.143  0.4193  0.1923 -1.6253
   48PVA     C3 7998   1.760   0.731   4.278 -0.3137 -0.5526 -0.3482
   48PVA     H5 7999   1.821   0.643   4.255 -0.3947 -0.6607 -0.1534
   48PVA     H6 8000   1.805   0.817   4.330 -1.3656 -1.4042  2.0982
   48PVA     C4 8001   1.643   0.709   4.377 -0.1909  0.3418 -1.8649
   48PVA     H7 8002   1.561   0.778   4.351  0.3740  1.9092  0.2750
   48PVA     H8 8003   1.604   0.608   4.360  1.1726 -0.6732  0.5995
   48PVA     C5 8004   1.700   0.724   4.529  0.0214  1.4739 -0.4746
   48PVA     H9 8005   1.759   0.814   4.545  3.3948 -0.5893 -0.3284
   48PVA     O2 8006   1.789   0.607   4.555  0.0296  0.7530  0.2958
   48PVA    H10 8007   1.856   0.621   4.486  0.3896  2.1851  0.9125
   48PVA     C6 8008   1.580   0.712   4.632 -0.9995 -0.5810  0.1327
   48PVA    H11 8009   1.536   0.612   4.641  0.4791 -1.1590  1.3856
   48PVA    H12 8010   1.509   0.779   4.582  2.4332  4.5996  1.3034
   48PVA     C7 8011   1.604   0.761   4.779  0.1418 -0.4221 -0.3212
   48PVA    H13 8012   1.506   0.748   4.827  0.4723 -0.7938  0.2718
   48PVA    H14 8013   1.675   0.690   4.824 -1.1412 -2.6028 -1.5682
   48PVA     C8 8014   1.624   0.916   4.806 -0.0163  0.2056 -1.2546
   48PVA    H15 8015   1.732   0.923   4.792 -0.4794  1.0376 -5.9404
   48PVA     O3 8016   1.579   0.985   4.695  1.1371 -0.7502  0.8734
   48PVA    H16 8017   1.489   1.021   4.693  1.6237  0.5791  1.2853
   48PVA     C9 8018   1.567   0.968   4.945 -0.1335  0.4639 -0.6006
   48PVA    H17 8019   1.581   0.885   5.016  1.0951 -1.9403 -3.4481
   48PVA    H18 8020   1.462   0.996   4.932 -0.3718 -0.1056  0.0372
   48PVA    C10 8021   1.629   1.095   5.004  0.1415 -0.0560  0.8033
   48PVA    H19 8022   1.734   1.078   5.029 -0.6966 -3.5615  2.5610
   48PVA    H20 8023   1.622   1.168   4.922 -2.6557 -0.3157  0.6958
   48PVA    C11 8024   1.562   1.158   5.133 -1.1306 -0.3431 -0.3459
   48PVA    H21 8025   1.483   1.225   5.098  0.1504  1.2763 -0.2646
   48PVA     O4 8026   1.498   1.063   5.229 -0.8496  1.5476  1.1439
   48PVA    H22 8027   1.471   1.122   5.302  1.1124  1.1012  2.2861
   48PVA    C12 8028   1.661   1.253   5.209 -0.8278  0.3877 -0.0604
   48PVA    H23 8029   1.741   1.194   5.255 -0.5828  1.7095  1.2808
   48PVA    H24 8030   1.710   1.328   5.145  0.1619  1.3791  1.7882
   48PVA    C13 8031   1.584   1.342   5.309 -0.0291  0.2548  0.2175
   48PVA    H25 8032   1.548   1.288   5.397  1.7937  0.8324  1.3810
   48PVA    H26 8033   1.495   1.385   5.262 -0.0386 -1.5694 -1.5502
   48PVA    C14 8034   1.664   1.477   5.345 -0.6355  0.3889 -0.7423
   48PVA    H27 8035   1.692   1.520   5.248 -0.9806  4.2197  0.6784
   48PVA     O5 8036   1.787   1.459   5.418 -0.1177  0.6935 -0.9420
   48PVA    H28 8037   1.858   1.453   5.351 -0.6815 -3.2875 -1.4597
   48PVA    C15 8038   1.594   1.605   5.408  0.0374 -0.1357  0.5266
   48PVA    H29 8039   1.540   1.580   5.501 -1.6649  1.4743  0.0309
   48PVA    H30 8040   1.517   1.628   5.334 -1.4708  0.9724  2.3221
   48PVA    C16 8041   1.682   1.736   5.398 -0.6501  0.3277  0.0384
   48PVA    H31 8042   1.776   1.716   5.450 -0.9756  1.5927  1.1918
   48PVA    H32 8043   1.733   1.743   5.302 -5.1617 -1.3329 -2.8035
   48PVA    C17 8044   1.612   1.865   5.453 -0.5239  1.3171 -0.4387
   48PVA    H33 8045   1.580   1.840   5.555  1.6543 -3.9635 -0.7422
   48PVA     O6 8046   1.517   1.915   5.357  0.3992 -0.2591 -0.5862
   48PVA    H34 8047   1.476   1.998   5.389 -0.3885 -1.0233  0.4451
   48PVA    C18 8048   1.710   1.986   5.469 -0.6536 -1.1589  0.2640
   48PVA    H35 8049   1.649   2.076   5.483  0.6307 -0.1748 -0.2574
   48PVA    H36 8050   1.771   2.008   5.380 -0.0371 -1.5539  0.5806
   48PVA    C19 8051   1.821   1.974   5.578  1.2124  1.0098 -0.1143
   48PVA    H37 8052   1.815   1.870   5.613 -4.3507  0.3500 -2.0672
   48PVA    H38 8053   1.913   1.993   5.521  1.4203 -2.8690 -1.3705
   48PVA    C20 8054   1.800   2.072   5.706  2.1773 -0.2363  0.0011
   48PVA    H39 8055   1.704   2.040   5.746  0.5038 -2.0958 -4.7987
   48PVA     O7 8056   1.787   2.198   5.642 -0.7187  0.3689 -0.1790
   48PVA    H40 8057   1.821   2.171   5.555  3.6853 -3.9837  2.3858
   48PVA    C21 8058   1.908   2.078   5.816  0.3746 -0.1645 -0.5424
   48PVA    H41 8059   1.979   2.158   5.791  4.3633 -2.7450  1.5780
   48PVA    H42 8060   1.959   1.981   5.824  1.5270  0.5692  2.2844
   48PVA    C22 8061   1.875   2.089   5.965 -0.0963  0.1729 -1.2785
   48PVA    H43 8062   1.883   1.992   6.016  0.5347  1.9712  2.3848
   48PVA    H44 8063   1.776   2.136   5.977 -0.2891 -0.4936 -0.1225
   48PVA    C23 8064   1.970   2.164   6.056 -0.2138  0.0535 -0.6073
   48PVA    H45 8065   2.019   2.245   6.000  3.3289 -3.0906 -2.5268
   48PVA     O8 8066   2.076   2.078   6.098 -0.7159 -0.2085  0.1940
   48PVA    H46 8067   2.118   2.043   6.018  1.5956  0.4098  1.0542
   48PVA    C24 8068   1.895   2.211   6.195 -0.4475  0.0617  0.3731
   48PVA    H47 8069   1.835   2.132   6.240 -0.0199 -0.8552 -0.6146
   48PVA    H48 8070   1.810   2.275   6.167  0.4257  1.5560  0.9668
   48PVA    C25 8071   1.980   2.289   6.301 -0.2319  0.9922  0.1507
   48PVA    H49 8072   2.049   2.356   6.248  0.1693  0.8881  0.5292
   48PVA    H50 8073   2.038   2.213   6.355 -0.1080  2.4379  2.1684
   48PVA    C26 8074   1.907   2.383   6.390  0.5089 -1.1264 -0.1516
   48PVA    H51 8075   1.854   2.330   6.470  4.0960 -1.1906  2.4059
   48PVA     O9 8076   1.816   2.466   6.308 -0.1818  0.0400 -0.0940
   48PVA    H52 8077   1.857   2.544   6.267  1.3824  0.6542  2.4052
   48PVA    C27 8078   2.002   2.473   6.485  1.5717  0.8046  0.1224
   48PVA    H53 8079   2.003   2.414   6.578 -0.1639  1.0302  0.3155
   48PVA    H54 8080   1.945   2.565   6.503  0.8173 -0.2836  4.6804
   48PVA    C28 8081   2.153   2.509   6.457 -0.7968 -0.1227 -0.7071
   48PVA    H55 8082   2.177   2.522   6.351 -0.3820  0.8313 -0.5091
   48PVA    H56 8083   2.164   2.611   6.495  0.3938 -0.2872 -0.5635
   48PVA    C29 8084   2.270   2.422   6.514 -0.3495  0.0489  0.2076
   48PVA    H57 8085   2.265   2.318   6.481 -3.7596 -0.4386  1.8198
   48PVA    O10 8086   2.234   2.430   6.643 -0.7155 -0.8593 -0.7380
   48PVA    H58 8087   2.301   2.380   6.692 -3.5879 -1.2443  3.2406
   48PVA    C30 8088   2.417   2.467   6.515 -1.3904 -0.4294 -0.5577
   48PVA    H59 8089   2.437   2.541   6.436  2.0514 -2.2663 -1.6127
   48PVA    H60 8090   2.447   2.512   6.610  0.7744 -0.7120 -1.0637
   48PVA    C31 8091   2.520   2.356   6.485  0.3335 -0.6475 -0.3617
   48PVA    H61 8092   2.498   2.339   6.378  1.0159 -0.1986 -0.5812
   48PVA    H62 8093   2.485   2.271   6.544 -1.9742  1.5527  1.6480
   48PVA    C32 8094   2.671   2.381   6.499  0.8558 -0.4642  1.0791
   48PVA    H63 8095   2.692   2.424   6.597  3.4300  1.4128 -0.1790
   48PVA    O11 8096   2.702   2.478   6.403 -0.2332 -0.0709 -0.6128
   48PVA    H64 8097   2.771   2.535   6.441  2.2132 -1.6765 -2.3517
   48PVA    C33 8098   2.773   2.263   6.496 -0.4874  0.2563  0.5588
   48PVA    H65 8099   2.719   2.169   6.477  2.7746 -1.3203 -1.6931
   48PVA    H66 8100   2.814   2.245   6.597  0.1150 -1.7454  0.0034
   48PVA    C34 8101   2.918   2.244   6.428 -0.3293 -0.3100  0.7234
   48PVA    H67 8102   2.900   2.145   6.384 -2.2436  0.7338 -1.0737
   48PVA    H68 8103   2.922   2.316   6.345 -1.8303 -0.6421  0.3372
   48PVA    C35 8104   3.060   2.251   6.496 -0.2186 -0.1052  0.1050
   48PVA    H69 8105   3.069   2.349   6.546  3.3750  0.0436 -0.5646
   48PVA    O12 8106   3.067   2.149   6.587  0.0977 -0.7269  0.5679
   48PVA    H70 8107   2.986   2.169   6.638  0.5237  1.6358  0.4306
   48PVA    C36 8108   3.184   2.255   6.385 -0.0298  1.0002  0.6985
   48PVA    H71 8109   3.151   2.198   6.297 -0.3341  3.8734 -1.1726
   48PVA    H72 8110   3.193   2.360   6.357  0.4376  1.3391  2.0576
   48PVA    C37 8111   3.322   2.187   6.428  0.2121 -0.1936 -0.5578
   48PVA    H73 8112   3.317   2.091   6.480  1.5810  1.2364  2.4436
   48PVA    H74 8113   3.367   2.250   6.506  2.4110  0.7799 -2.4894
   48PVA    C38 8114   3.440   2.162   6.333 -0.2596 -0.2861 -0.6825
   48PVA    H75 8115   3.536   2.174   6.385  2.3164 -3.9910 -4.0170
   48PVA    O13 8116   3.435   2.255   6.227 -0.1133 -0.5968  0.9976
   48PVA    H76 8117   3.401   2.344   6.247  1.9995  0.1299  1.7387
   48PVA    C39 8118   3.450   2.018   6.280 -1.5563 -0.3326  0.6135
   48PVA    H77 8119   3.476   2.014   6.174 -0.6673 -2.3085  0.8704
   48PVA    H78 8120   3.354   1.965   6.287 -1.1289 -1.4523 -1.3642
   48PVA    C40 8121   3.582   1.941   6.341 -0.1905 -0.8788  0.8249
   48PVA    H79 8122   3.659   1.986   6.276 -3.3981  1.9254 -1.3946
   48PVA    H80 8123   3.608   1.986   6.438  4.0107 -1.4585  0.1825
   48PVA    C41 8124   3.602   1.785   6.322  0.2291  0.8571 -0.8921
   48PVA    H81 8125   3.511   1.749   6.271  0.5937 -1.9104  0.2373
   48PVA    O14 8126   3.710   1.756   6.228  0.3928  0.1433 -0.5860
   48PVA    H82 8127   3.673   1.751   6.138  0.5266  0.3274 -0.6504
   48PVA    C42 8128   3.614   1.682   6.450 -0.7723 -0.6182 -0.2845
   48PVA    H83 8129   3.713   1.635   6.444 -0.0179  0.9401 -0.6557
   48PVA    H84 8130   3.612   1.742   6.541 -2.9896 -0.9249 -0.0714
   48PVA    C43 8131   3.505   1.576   6.464 -0.2721 -0.2347 -0.1552
   48PVA    H85 8132   3.487   1.532   6.365 -2.0666 -2.3046  1.0132
   48PVA    H86 8133   3.413   1.618   6.505 -0.9526 -0.8240 -1.0259
   48PVA    C44 8134   3.540   1.461   6.556 -0.3800 -0.0218  0.4279
   48PVA    H87 8135   3.570   1.511   6.649 -1.0966  0.9541  0.1520
   48PVA    O15 8136   3.640   1.383   6.501 -0.5114  0.1196  0.0185
   48PVA    H88 8137   3.728   1.421   6.515 -0.2166 -0.8117  0.7873
   48PVA    C45 8138   3.431   1.348   6.589 -0.1583 -0.0149 -0.6016
   48PVA    H89 8139   3.353   1.402   6.644  1.8064  0.4295  1.9429
   48PVA    H90 8140   3.378   1.312   6.500  2.9859  1.5170 -3.3136
   48PVA    C46 8141   3.480   1.210   6.656 -0.0952 -0.7952 -0.1995
   48PVA    H91 8142   3.563   1.224   6.727 -0.7047 -1.0708  0.5866
   48PVA    H92 8143   3.522   1.157   6.570 -1.0637  0.6807 -1.6637
   48PVA    C47 8144   3.362   1.140   6.724 -0.6289  0.2203  0.8750
   48PVA    H93 8145   3.280   1.147   6.652  1.0714  2.4794 -0.9861
   48PVA    O16 8146   3.329   1.218   6.844 -0.4794  0.2549 -0.7259
   48PVA    H94 8147   3.236   1.235   6.869 -0.2032 -2.3913  3.0633
   48PVA    C48 8148   3.378   0.985   6.776 -1.2607  0.1906 -0.4725
   48PVA    H95 8149   3.391   0.914   6.693 -0.2034  2.4012 -2.3369
   48PVA    H96 8150   3.462   1.000   6.845 -2.5522  1.1990  0.9256
   48PVA    C49 8151   3.242   0.930   6.837  0.3550  0.4076  0.8974
   48PVA    H97 8152   3.218   0.983   6.930 -2.6303 -1.9756  1.6435
   48PVA    H98 8153   3.154   0.953   6.775 -0.4690 -0.8436  1.5696
   48PVA    C50 8154   3.227   0.780   6.878  0.1385 -0.1426 -0.5246
   48PVA    H99 8155   3.270   0.767   6.978 -0.0943 -0.3358 -0.4479
   48PVA    O17 8156   3.287   0.695   6.776  0.0711  0.2286  0.0094
   48PVA   H100 8157   3.283   0.606   6.815 -1.9829 -1.2524 -3.2076
   48PVA    C51 8158   3.073   0.738   6.894  0.1945  0.1454  0.2771
   48PVA   H101 8159   3.015   0.819   6.940  0.3253  1.5271 -1.8489
   48PVA   H102 8160   3.039   0.740   6.790 -0.7791  1.5780  0.5957
   49PVA     C1 8161   2.032   0.389   3.672 -0.2489  0.3617  0.1885
   49PVA     H1 8162   2.134   0.351   3.678  0.2238 -0.0010 -5.4142
   49PVA     H2 8163   2.015   0.478   3.610 -1.3912  0.0946  0.0922
   49PVA     C2 8164   1.948   0.269   3.610 -0.2774 -0.9962  0.2207
   49PVA     H3 8165   1.871   0.320   3.551  1.3817  0.9548 -0.3656
   49PVA     O1 8166   1.866   0.196   3.705  0.4649  0.4852  0.4214
   49PVA     H4 8167   1.931   0.136   3.745  0.1739 -2.3777 -2.9501
   49PVA     C3 8168   2.027   0.155   3.524  0.0698  0.4153 -1.0425
   49PVA     H5 8169   2.068   0.094   3.606 -2.3477  3.5678  2.8887
   49PVA     H6 8170   2.105   0.213   3.474  0.8909  2.8341  2.6452
   49PVA     C4 8171   1.950   0.064   3.423  0.4488 -0.8172 -0.4884
   49PVA     H7 8172   1.843   0.060   3.444  0.7929  0.9763  1.9241
   49PVA     H8 8173   1.953   0.124   3.331  1.0558  1.8133  1.1484
   49PVA     C5 8174   1.996   7.607   3.380 -0.5261 -0.5365 -0.6474
   49PVA     H9 8175   2.022   7.552   3.471 -1.0608 -0.8465 -0.6783
   49PVA     O2 8176   2.115   7.596   3.315  0.1971  0.5216 -1.0018
   49PVA    H10 8177   2.175   7.655   3.364  1.5551  2.4527 -4.5636
   49PVA     C6 8178   1.890   7.539   3.290 -1.1903  0.0314  0.5681
   49PVA    H11 8179   1.803   7.502   3.346  1.8107 -5.4883  2.2367
   49PVA    H12 8180   1.851   7.602   3.208 -0.6583  0.6614  0.7910
   49PVA     C7 8181   1.929   7.404   3.228 -0.1550  0.8838  0.2395
   49PVA    H13 8182   1.964   7.356   3.320 -2.1971 -1.4887 -0.1134
   49PVA    H14 8183   2.002   7.418   3.147 -1.2145 -0.6897 -1.0638
   49PVA     C8 8184   1.821   7.322   3.156  0.6534  1.2373 -0.0457
   49PVA    H15 8185   1.771   7.393   3.090 -0.1743 -0.4128 -1.2687
   49PVA     O3 8186   1.724   7.288   3.258 -0.4835  0.6217 -0.5237
   49PVA    H16 8187   1.646   7.278   3.201  3.1518 -1.5762 -5.8710
   49PVA     C9 8188   1.865   7.194   3.067 -0.3783 -0.1334  0.4028
   49PVA    H17 8189   1.955   7.215   3.007  0.2918 -2.2166  0.5807
   49PVA    H18 8190   1.927   7.131   3.132  0.0892 -0.1637 -0.0637
   49PVA    C10 8191   1.763   7.113   2.983 -0.1492 -0.4677  0.6169
   49PVA    H19 8192   1.685   7.175   2.938 -0.5848  0.2666  2.3131
   49PVA    H20 8193   1.701   7.047   3.045 -2.1299  1.6273  0.9998
   49PVA    C11 8194   1.828   7.018   2.879  0.3842  1.5644  1.0655
   49PVA    H21 8195   1.933   7.008   2.910 -0.4461  2.9416  4.8511
   49PVA     O4 8196   1.829   7.071   2.747 -0.0565  0.5949  0.7006
   49PVA    H22 8197   1.740   7.044   2.720  0.7066  1.3285 -3.0588
   49PVA    C12 8198   1.769   6.873   2.872  0.6561 -0.5984  0.2386
   49PVA    H23 8199   1.799   6.813   2.959  3.5883  2.0396  1.2354
   49PVA    H24 8200   1.660   6.881   2.862  0.6893 -2.0582 -2.0868
   49PVA    C13 8201   1.819   6.788   2.747  0.1363 -0.8107  1.2001
   49PVA    H25 8202   1.927   6.793   2.762 -0.2025  1.6914  3.5854
   49PVA    H26 8203   1.792   6.829   2.649 -3.4838  1.1420  2.8232
   49PVA    C14 8204   1.779   6.638   2.743 -0.1814  0.3448  1.6577
   49PVA    H27 8205   1.804   6.595   2.841  1.5237 -3.6323 -0.3095
   49PVA     O5 8206   1.637   6.599   2.729 -0.9695 -0.1511 -0.8784
   49PVA    H28 8207   1.577   6.665   2.769 -2.9818  1.2677 -5.5887
   49PVA    C15 8208   1.856   6.552   2.636  0.4336 -0.7555 -0.0684
   49PVA    H29 8209   1.958   6.592   2.628  0.8728 -1.8659 -0.1900
   49PVA    H30 8210   1.804   6.579   2.544 -0.1788 -1.9117 -0.0775
   49PVA    C16 8211   1.849   6.394   2.626 -0.5667  0.6521  0.4592
   49PVA    H31 8212   1.909   6.378   2.716  1.7415  2.3635 -0.6812
   49PVA    H32 8213   1.754   6.356   2.664  0.1061 -4.1548 -1.8344
   49PVA    C17 8214   1.911   6.307   2.506  0.0328 -0.5024  0.6000
   49PVA    H33 8215   1.839   6.324   2.425  2.3299 -1.0616 -1.6852
   49PVA     O6 8216   2.037   6.358   2.477  0.1223 -0.9895 -0.3517
   49PVA    H34 8217   2.051   6.344   2.382 -0.2681 -1.0568 -0.3985
   49PVA    C18 8218   1.907   6.156   2.523  0.2554 -0.7755 -0.6106
   49PVA    H35 8219   1.969   6.139   2.613 -1.9407  1.7862  1.5669
   49PVA    H36 8220   1.819   6.116   2.573 -0.6057 -0.4389 -1.8147
   49PVA    C19 8221   1.958   6.071   2.403 -0.3411  0.1451 -1.5461
   49PVA    H37 8222   2.064   6.096   2.387 -0.1799  1.2264  0.7084
   49PVA    H38 8223   1.903   6.098   2.312 -2.6020  0.9543 -0.0422
   49PVA    C20 8224   1.927   5.913   2.423  0.0915  0.1595  0.0357
   49PVA    H39 8225   1.823   5.903   2.456  0.8673  1.6663  3.4565
   49PVA     O7 8226   2.007   5.865   2.528  0.4357  0.4953  0.5187
   49PVA    H40 8227   2.068   5.937   2.550  3.3850 -0.9107 -2.3060
   49PVA    C21 8228   1.944   5.827   2.295  0.2620 -0.5816  0.9388
   49PVA    H41 8229   1.992   5.882   2.213  4.9124 -0.4427  3.3939
   49PVA    H42 8230   1.850   5.790   2.255  0.3719  1.3762 -1.3289
   49PVA    C22 8231   2.036   5.694   2.300 -0.4212  0.5456  0.7471
   49PVA    H43 8232   2.138   5.704   2.341 -0.2153 -1.3899  0.8078
   49PVA    H44 8233   1.996   5.624   2.374  0.2631 -1.9731 -1.1269
   49PVA    C23 8234   2.047   5.605   2.174 -0.2697 -0.1456  1.1990
   49PVA    H45 8235   1.948   5.582   2.133 -0.0885  0.8962  0.0769
   49PVA     O8 8236   2.106   5.689   2.069 -0.1917  0.4906  0.5033
   49PVA    H46 8237   2.200   5.707   2.085  0.3638 -0.3176 -1.5810
   49PVA    C24 8238   2.140   5.478   2.190 -0.5297 -0.8476 -0.8072
   49PVA    H47 8239   2.115   5.425   2.283  3.2529 -0.9061  0.3535
   49PVA    H48 8240   2.243   5.511   2.206 -0.7498 -0.5032 -0.0408
   49PVA    C25 8241   2.125   5.379   2.066 -1.0806  0.3244 -0.2166
   49PVA    H49 8242   2.104   5.429   1.971 -2.5763 -0.6152 -0.4192
   49PVA    H50 8243   2.042   5.307   2.074  1.2670 -2.6252 -0.6135
   49PVA    C26 8244   2.249   5.285   2.047  0.4559  1.4134  0.1774
   49PVA    H51 8245   2.341   5.335   2.016  1.8211 -1.4022 -0.6610
   49PVA     O9 8246   2.276   5.214   2.171  0.3506  0.4049  0.8122
   49PVA    H52 8247   2.348   5.154   2.143  0.1813  1.5665 -2.6762
   49PVA    C27 8248   2.238   5.182   1.925 -0.1390  0.7410 -0.7352
   49PVA    H53 8249   2.161   5.218   1.855 -1.9996  1.6601  1.6164
   49PVA    H54 8250   2.204   5.081   1.953  3.1727  0.8569  5.2752
   49PVA    C28 8251   2.367   5.165   1.829  0.4119  0.4895 -0.6763
   49PVA    H55 8252   2.332   5.127   1.732 -2.0453 -1.8398  0.9742
   49PVA    H56 8253   2.406   5.267   1.818 -1.5680  1.5468  1.3639
   49PVA    C29 8254   2.469   5.070   1.893 -0.5885 -0.7499 -0.1587
   49PVA    H57 8255   2.421   4.971   1.894 -2.8914  0.3154  0.4919
   49PVA    O10 8256   2.496   5.100   2.028  0.1411 -0.5185 -0.0228
   49PVA    H58 8257   2.550   5.037   2.079 -3.2921 -1.1056  3.4601
   49PVA    C30 8258   2.597   5.048   1.807  0.0799 -0.2454 -0.8393
   49PVA    H59 8259   2.568   5.022   1.704  2.3957  1.8258 -2.1340
   49PVA    H60 8260   2.651   5.143   1.803 -1.4443  0.6084 -1.8292
   49PVA    C31 8261   2.713   4.959   1.868 -0.3241 -0.0565  0.6451
   49PVA    H61 8262   2.663   4.911   1.952  1.4082  1.3692  2.5879
   49PVA    H62 8263   2.775   5.040   1.909 -1.4999  2.2254 -1.7621
   49PVA    C32 8264   2.794   4.858   1.762 -0.3147  0.3900 -0.7907
   49PVA    H63 8265   2.858   4.918   1.697  2.8171  0.2486  1.9174
   49PVA    O11 8266   2.698   4.773   1.696 -0.4964  0.5832 -0.0147
   49PVA    H64 8267   2.618   4.828   1.701 -0.3275  0.7220  1.8070
   49PVA    C33 8268   2.910   4.779   1.847  0.1161  0.2519  0.3488
   49PVA    H65 8269   2.869   4.725   1.933  0.1642  0.1307  0.2971
   49PVA    H66 8270   2.982   4.848   1.893  0.0698 -2.0643  4.3614
   49PVA    C34 8271   2.968   4.651   1.768  0.5841  0.6224 -0.6794
   49PVA    H67 8272   3.024   4.685   1.680 -0.5456  2.0287 -0.8892
   49PVA    H68 8273   2.886   4.590   1.728  2.2973 -0.0170 -3.4435
   49PVA    C35 8274   3.027   4.540   1.856  0.3691 -1.0587  0.8492
   49PVA    H69 8275   3.005   4.553   1.963  1.0830  1.9912  0.7003
   49PVA    O12 8276   3.163   4.566   1.859 -0.9612  0.2188 -0.4721
   49PVA    H70 8277   3.178   4.609   1.773 -0.9916  3.5593  1.0686
   49PVA    C36 8278   3.004   4.387   1.801  1.2188 -0.2930  0.1487
   49PVA    H71 8279   2.896   4.378   1.814  0.6020 -1.1285 -4.1923
   49PVA    H72 8280   3.029   4.397   1.695  0.9224 -1.0053  0.0065
   49PVA    C37 8281   3.079   4.283   1.889 -0.4330  0.8834  0.2350
   49PVA    H73 8282   3.084   4.325   1.991 -2.5845 -0.5355  0.9939
   49PVA    H74 8283   3.187   4.273   1.872 -0.5519  0.2163 -0.1511
   49PVA    C38 8284   3.022   4.142   1.877  0.9233  0.0010  1.3602
   49PVA    H75 8285   3.022   4.117   1.770 -0.5705  1.3047  1.0205
   49PVA    O13 8286   2.897   4.124   1.941  0.3613  0.0980  0.4608
   49PVA    H76 8287   2.900   4.119   2.038  0.3404 -1.4640  0.3993
   49PVA    C39 8288   3.093   4.024   1.950 -2.1168  0.4880  0.2288
   49PVA    H77 8289   3.188   4.004   1.899 -2.4859 -1.6868  0.3283
   49PVA    H78 8290   3.132   4.050   2.049  2.6610  3.5196 -2.0703
   49PVA    C40 8291   3.032   3.880   1.933  0.7342 -0.0418  0.3812
   49PVA    H79 8292   2.934   3.868   1.982 -2.0175 -1.3374 -4.7768
   49PVA    H80 8293   3.030   3.877   1.824 -1.1172  3.1529  0.1996
   49PVA    C41 8294   3.124   3.770   1.978  0.1782 -0.1794  0.4472
   49PVA    H81 8295   3.168   3.796   2.075 -0.2935  2.2319  0.0567
   49PVA    O14 8296   3.236   3.762   1.884 -0.1625 -0.1103 -0.1987
   49PVA    H82 8297   3.194   3.757   1.797  0.1921  0.3169 -0.4007
   49PVA    C42 8298   3.053   3.628   1.991  0.8436 -0.7585  0.2742
   49PVA    H83 8299   3.009   3.580   1.903  3.1560 -1.5534 -0.5127
   49PVA    H84 8300   2.965   3.649   2.054  1.5084  1.6421  0.5120
   49PVA    C43 8301   3.141   3.512   2.051  0.7350 -0.6648 -0.0989
   49PVA    H85 8302   3.089   3.418   2.073  4.8991 -3.0043  0.7677
   49PVA    H86 8303   3.174   3.561   2.143  0.7449 -1.3440  0.2640
   49PVA    C44 8304   3.267   3.463   1.965 -0.4622 -0.0016  0.0453
   49PVA    H87 8305   3.332   3.544   1.930  2.7326 -1.3509  2.3928
   49PVA    O15 8306   3.223   3.428   1.828 -0.0760 -0.7000  0.2418
   49PVA    H88 8307   3.157   3.497   1.810 -1.4964 -2.5612 -2.2742
   49PVA    C45 8308   3.351   3.340   2.024 -0.2263  0.3519 -0.7160
   49PVA    H89 8309   3.273   3.267   2.003  1.9011 -1.7514 -1.8097
   49PVA    H90 8310   3.377   3.349   2.130  2.0450 -0.1128 -1.1807
   49PVA    C46 8311   3.475   3.285   1.947 -0.5681  0.2793 -0.4939
   49PVA    H91 8312   3.458   3.253   1.844  3.4779 -1.0411 -0.9170
   49PVA    H92 8313   3.555   3.359   1.931 -0.8531  0.7753  0.2822
   49PVA    C47 8314   3.533   3.167   2.039  0.9010  0.3881  0.0544
   49PVA    H93 8315   3.507   3.197   2.141 -0.5803 -0.3382 -0.0908
   49PVA    O16 8316   3.455   3.050   2.006  0.4812  0.3690  0.1070
   49PVA    H94 8317   3.512   2.991   1.954  2.9768  1.8026  1.0398
   49PVA    C48 8318   3.685   3.126   2.024  0.4569 -0.5476 -1.3531
   49PVA    H95 8319   3.738   3.159   1.933  1.4255  1.7909 -0.0322
   49PVA    H96 8320   3.738   3.188   2.097  0.8344 -1.8839 -0.4668
   49PVA    C49 8321   3.735   2.972   2.048  0.1435 -0.9549 -0.7876
   49PVA    H97 8322   3.676   2.922   1.970  1.0303 -3.4820  0.0571
   49PVA    H98 8323   3.701   2.944   2.148  1.5999  2.3920  0.7827
   49PVA    C50 8324   3.887   2.919   2.044  0.4476  1.2775 -0.6582
   49PVA    H99 8325   3.925   2.914   1.942  2.1204  0.5515 -0.0464
   49PVA    O17 8326   3.992   2.973   2.131 -0.0197  0.2847  0.1741
   49PVA   H100 8327   3.973   3.069   2.136  0.4964  0.3792  0.4613
   49PVA    C51 8328   3.890   2.760   2.082 -0.4299  0.1999  0.1531
   49PVA   H101 8329   3.838   2.719   1.995  5.0004  0.6423 -3.8170
   49PVA   H102 8330   3.829   2.762   2.173  3.9349  1.4387  3.4084
   50PVA     C1 8331   2.553   0.837   6.560 -0.1159 -0.1284  0.1310
   50PVA     H1 8332   2.571   0.782   6.466  0.6605  1.1148 -0.4806
   50PVA     H2 8333   2.538   0.935   6.513  0.8739 -0.2595 -0.4865
   50PVA     C2 8334   2.684   0.864   6.642  0.8167  0.2294  0.9661
   50PVA     H3 8335   2.721   0.963   6.612  1.9003 -1.0838 -2.5753
   50PVA     O1 8336   2.666   0.855   6.782  0.0189  0.3122 -0.4983
   50PVA     H4 8337   2.622   0.769   6.792 -1.2683  1.1650  1.9081
   50PVA     C3 8338   2.806   0.763   6.587  0.3440  0.6078  0.0509
   50PVA     H5 8339   2.776   0.716   6.493  1.9602 -0.2350 -0.0757
   50PVA     H6 8340   2.816   0.686   6.664 -1.8790  0.4288  0.2269
   50PVA     C4 8341   2.951   0.841   6.562  0.6538  0.9231  0.0686
   50PVA     H7 8342   2.946   0.926   6.493  0.8792  2.6996  2.1096
   50PVA     H8 8343   2.983   0.893   6.654  0.7642  2.1194 -0.6284
   50PVA     C5 8344   3.073   0.775   6.482  0.1389  0.5624 -0.6150
   50PVA     H9 8345   3.048   0.741   6.381 -0.7875 -1.7920  0.3373
   50PVA     O2 8346   3.144   0.672   6.557  0.9195  0.0376 -0.4209
   50PVA    H10 8347   3.207   0.718   6.616 -0.6795  0.6010  0.9223
   50PVA     C6 8348   3.185   0.879   6.445 -0.3669 -0.0605  0.4900
   50PVA    H11 8349   3.261   0.891   6.523  3.4315  1.3084 -3.0698
   50PVA    H12 8350   3.142   0.977   6.418  1.4974  0.6404 -0.0946
   50PVA     C7 8351   3.267   0.840   6.319 -0.5964 -0.6835 -0.9420
   50PVA    H13 8352   3.195   0.841   6.236 -0.4261  2.1814 -1.1431
   50PVA    H14 8353   3.306   0.741   6.345  0.6552  0.4845  2.1982
   50PVA     C8 8354   3.401   0.932   6.283 -0.0854  0.8916 -1.2508
   50PVA    H15 8355   3.385   1.040   6.278  2.0553  1.2284 -2.1132
   50PVA     O3 8356   3.503   0.914   6.383 -0.1417  0.5949  0.1667
   50PVA    H16 8357   3.487   0.990   6.441 -2.6545 -0.4463  0.9746
   50PVA     C9 8358   3.445   0.905   6.131 -0.2647  1.0244 -0.1431
   50PVA    H17 8359   3.365   0.887   6.058  0.9495  1.1121 -1.5444
   50PVA    H18 8360   3.470   0.798   6.135 -0.4173  0.7087 -3.9408
   50PVA    C10 8361   3.554   1.006   6.078  0.0132  0.2800 -0.6410
   50PVA    H19 8362   3.538   1.104   6.125 -1.7862  0.5178 -1.6657
   50PVA    H20 8363   3.638   0.972   6.140 -0.4925  1.6784  0.8938
   50PVA    C11 8364   3.613   1.026   5.922  0.8699  1.2221 -0.7906
   50PVA    H21 8365   3.613   0.940   5.854 -2.4434  2.3216 -2.4070
   50PVA     O4 8366   3.527   1.117   5.862  0.7924 -0.1922  0.1158
   50PVA    H22 8367   3.564   1.147   5.777  0.1401 -2.2675 -0.9553
   50PVA    C12 8368   3.763   1.079   5.897 -1.0343 -0.5178  0.3454
   50PVA    H23 8369   3.758   1.185   5.870 -2.2837 -0.7839 -0.5491
   50PVA    H24 8370   3.802   1.089   5.999 -0.5996  0.8717  0.0655
   50PVA    C13 8371   3.873   1.000   5.805  0.8611 -1.5753  0.3718
   50PVA    H25 8372   3.867   1.037   5.702 -2.2065  4.4533  2.2756
   50PVA    H26 8373   3.834   0.898   5.796 -3.3460 -0.0235 -1.2795
   50PVA    C14 8374   4.022   0.975   5.825 -0.1460  0.3624 -1.3433
   50PVA    H27 8375   4.065   1.075   5.811 -1.2244  1.0751  0.1422
   50PVA     O5 8376   4.044   0.946   5.959 -0.0595 -0.1341  0.5625
   50PVA    H28 8377   4.023   0.851   5.965  0.2134 -0.1482  1.4548
   50PVA    C15 8378   4.082   0.865   5.731 -0.6328 -0.1431  0.0491
   50PVA    H29 8379   4.177   0.905   5.695  0.3494 -0.5267  2.0787
   50PVA    H30 8380   4.016   0.863   5.643 -1.9414 -0.9883  0.9979
   50PVA    C16 8381   4.092   0.719   5.783 -0.5349  0.8795  0.3785
   50PVA    H31 8382   4.171   0.717   5.859  1.5486  0.6042 -1.6621
   50PVA    H32 8383   3.989   0.711   5.821 -0.8691 -1.9950 -0.9229
   50PVA    C17 8384   4.115   0.590   5.690 -0.3863 -1.2048 -0.2211
   50PVA    H33 8385   4.050   0.516   5.739 -2.2517  0.2257 -0.4468
   50PVA     O6 8386   4.058   0.613   5.569 -0.2920 -0.2215  0.3795
   50PVA    H34 8387   3.961   0.612   5.571 -0.7218  5.6977 -0.5682
   50PVA    C18 8388   4.261   0.537   5.680 -0.4507 -0.0875 -1.3120
   50PVA    H35 8389   4.266   0.463   5.761  0.1043  1.0280 -0.2812
   50PVA    H36 8390   4.347   0.591   5.723  1.2482 -2.9430 -0.8718
   50PVA    C19 8391   4.307   0.438   5.559  1.1310 -0.9492 -0.7172
   50PVA    H37 8392   4.245   0.349   5.574  4.3722 -3.4504 -1.2215
   50PVA    H38 8393   4.269   0.489   5.469  0.7323 -0.8465 -0.4932
   50PVA    C20 8394   4.462   0.402   5.541 -0.2958 -0.1846 -0.1569
   50PVA    H39 8395   4.509   0.451   5.628 -1.6917 -2.4342  2.0087
   50PVA     O7 8396   4.483   0.271   5.583  0.6741  0.1519 -0.7742
   50PVA    H40 8397   4.508   0.274   5.677  2.7017  1.3861 -1.2884
   50PVA    C21 8398   4.544   0.411   5.399 -0.3940 -0.0526  0.1211
   50PVA    H41 8399   4.463   0.414   5.325  0.8166 -2.0119 -1.3867
   50PVA    H42 8400   4.569   0.311   5.361 -0.3298  0.6413 -1.7598
   50PVA    C22 8401   4.673   0.512   5.382 -0.1937  0.9382 -0.4836
   50PVA    H43 8402   4.672   0.613   5.425 -0.8955 -0.1906  2.3635
   50PVA    H44 8403   4.759   0.455   5.420 -1.4203 -0.0186  0.9791
   50PVA    C23 8404   4.713   0.531   5.225 -1.2796  0.7000  0.9744
   50PVA    H45 8405   4.765   0.436   5.207 -3.5664 -1.4950  4.6828
   50PVA     O8 8406   4.608   0.543   5.144  0.5491 -0.0288 -1.3156
   50PVA    H46 8407   4.563   0.625   5.170  1.3998 -0.0178  0.2327
   50PVA    C24 8408   4.812   0.640   5.165  0.4355 -0.3771 -0.2192
   50PVA    H47 8409   4.781   0.736   5.208  0.6125  0.8410 -2.6709
   50PVA    H48 8410   4.912   0.619   5.205 -0.4416 -1.7043  1.4684
   50PVA    C25 8411   4.829   0.676   5.006 -0.1627  0.5094  0.2580
   50PVA    H49 8412   4.840   0.579   4.957 -0.0150  1.4769 -1.7252
   50PVA    H50 8413   4.729   0.716   4.986 -0.2921  0.2232  0.3287
   50PVA    C26 8414   4.943   0.779   4.959  0.2503 -0.9886 -0.0643
   50PVA    H51 8415   4.932   0.878   5.004 -0.3554  0.7457 -3.6320
   50PVA     O9 8416   5.075   0.728   4.982 -1.1291 -0.5674  0.7737
   50PVA    H52 8417   5.142   0.775   4.929  0.4823 -1.4177  1.9781
   50PVA    C27 8418   4.932   0.824   4.808 -0.5605 -0.1325  0.3137
   50PVA    H53 8419   4.827   0.808   4.779 -1.6579  4.7562  0.7009
   50PVA    H54 8420   4.993   0.770   4.735 -2.9147  1.2693 -2.9356
   50PVA    C28 8421   4.947   0.987   4.789  0.3514  0.1028  1.0694
   50PVA    H55 8422   5.041   1.008   4.840 -0.7816  2.5435  2.3428
   50PVA    H56 8423   4.864   1.052   4.818 -1.9762 -2.6322  1.0311
   50PVA    C29 8424   4.953   1.027   4.640 -0.9259 -0.0915 -0.3016
   50PVA    H57 8425   4.859   0.991   4.596 -1.4549  2.0200 -1.0082
   50PVA    O10 8426   5.073   0.966   4.583  0.5538 -0.3109 -0.3419
   50PVA    H58 8427   5.081   1.000   4.492 -0.6878  0.8770 -0.0510
   50PVA    C30 8428   4.958   1.181   4.603  0.3016 -0.1121 -0.4795
   50PVA    H59 8429   4.909   1.231   4.687 -1.0090  0.8153 -1.7614
   50PVA    H60 8430   5.055   1.219   4.636 -0.2448 -0.3238  1.5735
   50PVA    C31 8431   4.918   1.232   4.448  0.2060  0.3213 -1.9894
   50PVA    H61 8432   4.815   1.200   4.428  0.5885 -0.7295 -2.3503
   50PVA    H62 8433   4.994   1.194   4.378 -0.6442 -2.2962 -1.6024
   50PVA    C32 8434   4.904   1.389   4.426  0.1056 -0.3003  0.0755
   50PVA    H63 8435   4.827   1.410   4.502  0.8866  3.9541 -0.1090
   50PVA    O11 8436   5.024   1.446   4.459  0.1702 -0.5209  0.3432
   50PVA    H64 8437   5.003   1.537   4.433  1.1549 -0.6750 -1.1149
   50PVA    C33 8438   4.863   1.434   4.285 -0.3134  0.7001  0.4927
   50PVA    H65 8439   4.767   1.385   4.264  0.4220 -1.3391  1.6528
   50PVA    H66 8440   4.919   1.374   4.212 -3.3889  1.2676 -2.5963
   50PVA    C34 8441   4.867   1.588   4.237  1.1203  0.4586 -1.9169
   50PVA    H67 8442   4.959   1.627   4.281  0.6967 -2.0101  1.5307
   50PVA    H68 8443   4.777   1.631   4.282  0.8635 -1.5667 -0.3738
   50PVA    C35 8444   4.860   1.622   4.084 -0.2191 -0.0359  0.8681
   50PVA    H69 8445   4.774   1.560   4.056 -0.4635 -0.6896  2.9023
   50PVA    O12 8446   4.983   1.575   4.026  0.3082  0.9258  0.2108
   50PVA    H70 8447   4.960   1.601   3.935 -1.1116  0.3833  0.3911
   50PVA    C36 8448   4.839   1.771   4.046  0.8626  0.7672 -0.0907
   50PVA    H71 8449   4.733   1.794   4.061  1.4393  2.4285  2.0439
   50PVA    H72 8450   4.895   1.835   4.115  0.4608  0.4667  0.5253
   50PVA    C37 8451   4.884   1.802   3.907 -0.5826  1.2343  0.3551
   50PVA    H73 8452   4.863   1.714   3.844  2.0527  1.0110 -0.3254
   50PVA    H74 8453   4.992   1.818   3.915 -0.3777 -0.1519  0.5772
   50PVA    C38 8454   4.829   1.940   3.849 -0.8884 -1.6475 -0.7361
   50PVA    H75 8455   4.860   2.029   3.904 -1.8315 -2.7928  1.8204
   50PVA    O13 8456   4.687   1.935   3.856 -0.3434 -0.7940  0.5651
   50PVA    H76 8457   4.678   1.840   3.838 -0.1093 -0.5622 -0.9599
   50PVA    C39 8458   4.858   1.972   3.701 -0.6455  0.3708  0.0749
   50PVA    H77 8459   4.816   1.898   3.632  0.2084  0.3076 -0.3967
   50PVA    H78 8460   4.968   1.968   3.693 -0.4686 -1.5394  2.2864
   50PVA    C40 8461   4.816   2.107   3.639 -0.9443 -0.7306 -0.5440
   50PVA    H79 8462   4.706   2.112   3.639 -0.9127  2.4217 -2.1152
   50PVA    H80 8463   4.855   2.192   3.697 -0.2523  0.2050 -2.2995
   50PVA    C41 8464   4.847   2.127   3.486 -0.9248 -1.0839  0.1052
   50PVA    H81 8465   4.854   2.028   3.440  1.2698 -1.2488  0.6624
   50PVA    O14 8466   4.969   2.191   3.458 -0.0920 -1.2190  0.0016
   50PVA    H82 8467   4.946   2.271   3.410 -4.8775 -2.3752 -0.1046
   50PVA    C42 8468   4.738   2.221   3.412 -0.3434 -0.4144  0.2492
   50PVA    H83 8469   4.650   2.156   3.420 -1.5792  1.0973 -0.4800
   50PVA    H84 8470   4.699   2.302   3.475  0.6631  0.9582 -0.8316
   50PVA    C43 8471   4.744   2.258   3.251  0.4461 -1.0519 -0.5392
   50PVA    H85 8472   4.756   2.163   3.196 -2.0277 -1.2822 -0.8033
   50PVA    H86 8473   4.843   2.304   3.241  0.4262 -1.2530 -1.8423
   50PVA    C44 8474   4.627   2.332   3.188 -0.9158 -0.5085 -0.3596
   50PVA    H87 8475   4.626   2.433   3.232 -1.4853 -1.5200  2.1284
   50PVA    O15 8476   4.508   2.287   3.226  0.3403 -0.2734 -0.7104
   50PVA    H88 8477   4.465   2.229   3.161 -3.7849  0.7550  0.8154
   50PVA    C45 8478   4.631   2.340   3.033 -0.7905 -0.9902  0.8664
   50PVA    H89 8479   4.739   2.350   3.018 -0.4613 -0.2072  3.2107
   50PVA    H90 8480   4.617   2.240   2.991 -0.0361 -1.4277  1.6124
   50PVA    C46 8481   4.544   2.443   2.959  0.7617  1.1254 -0.4634
   50PVA    H91 8482   4.445   2.413   2.996  1.6776  1.2048  2.2937
   50PVA    H92 8483   4.593   2.535   2.996  2.6788  0.8191 -2.0769
   50PVA    C47 8484   4.556   2.433   2.793  1.0061  0.7362 -1.9578
   50PVA    H93 8485   4.656   2.473   2.771  3.3604 -2.5990  1.2851
   50PVA    O16 8486   4.543   2.295   2.765 -1.2409  0.3645  0.5363
   50PVA    H94 8487   4.509   2.246   2.842  0.6897 -2.6719 -0.3810
   50PVA    C48 8488   4.454   2.510   2.704  0.7781  0.1442  0.2988
   50PVA    H95 8489   4.355   2.505   2.753  0.8871  0.7435  0.5877
   50PVA    H96 8490   4.490   2.613   2.710 -2.2410  1.2728  1.5002
   50PVA    C49 8491   4.429   2.447   2.553  0.3488 -0.5837  1.3318
   50PVA    H97 8492   4.369   2.355   2.551  0.8570 -1.0658 -3.9562
   50PVA    H98 8493   4.533   2.424   2.528 -0.0329 -1.2621  0.3580
   50PVA    C50 8494   4.386   2.546   2.448 -0.8576 -0.7133 -0.2718
   50PVA    H99 8495   4.470   2.565   2.380 -1.8022 -1.1924 -1.6063
   50PVA    O17 8496   4.356   2.661   2.511  0.0318  0.1105 -1.0415
   50PVA   H100 8497   4.429   2.721   2.490  0.0721  0.6500  0.5052
   50PVA    C51 8498   4.271   2.510   2.352 -0.1312 -0.0265 -0.8428
   50PVA   H101 8499   4.181   2.500   2.414  0.4499  0.4021  0.0890
   50PVA   H102 8500   4.302   2.413   2.312 -3.6385 -0.6775 -2.3621
   51PVA     C1 8501   2.061   0.892   6.725  0.9073  0.8165 -0.9752
   51PVA     H1 8502   2.065   0.917   6.832  1.3602 -0.0605 -0.7775
   51PVA     H2 8503   2.067   0.987   6.669 -1.4645  1.2014 -0.6832
   51PVA     C2 8504   1.920   0.870   6.663  0.4329  0.0819 -1.1376
   51PVA     H3 8505   1.903   0.761   6.658  3.5260 -0.5661 -0.0289
   51PVA     O1 8506   1.903   0.926   6.535  0.4930 -0.5972 -0.1610
   51PVA     H4 8507   1.922   0.854   6.472  4.0102 -0.9327  1.0810
   51PVA     C3 8508   1.802   0.930   6.732  0.2752 -0.0512  0.0270
   51PVA     H5 8509   1.805   1.040   6.723  1.5250  0.3760  3.8012
   51PVA     H6 8510   1.801   0.908   6.839  0.4352 -0.3197 -0.0264
   51PVA     C4 8511   1.673   0.865   6.676  0.2857  1.6835  0.0703
   51PVA     H7 8512   1.669   0.875   6.566 -0.8691  4.6324  0.2793
   51PVA     H8 8513   1.692   0.760   6.698  5.0146  2.0735 -1.1992
   51PVA     C5 8514   1.527   0.920   6.711  0.5858 -0.2728  0.7064
   51PVA     H9 8515   1.545   1.023   6.744 -0.0639 -0.7955  2.8184
   51PVA     O2 8516   1.454   0.916   6.583  0.1064 -0.2819 -0.0729
   51PVA    H10 8517   1.446   0.820   6.569  3.3477 -0.7044  0.1715
   51PVA     C6 8518   1.443   0.842   6.819  0.1765 -0.7570 -0.0317
   51PVA    H11 8519   1.469   0.735   6.813 -0.9832 -1.0009 -1.2991
   51PVA    H12 8520   1.481   0.875   6.916 -0.2824 -1.9076  0.5617
   51PVA     C7 8521   1.282   0.854   6.819  0.3339  0.0399  0.2937
   51PVA    H13 8522   1.270   0.773   6.745 -1.4685 -1.2440  1.9092
   51PVA    H14 8523   1.249   0.943   6.763 -1.6892  0.0384  1.4312
   51PVA     C8 8524   1.198   0.836   6.954  0.0563 -0.5216  0.2156
   51PVA    H15 8525   1.118   0.761   6.953  2.0396 -2.8460  2.6454
   51PVA     O3 8526   1.283   0.788   7.059 -0.2078  0.7274  0.4162
   51PVA    H16 8527   1.376   0.791   7.031 -0.6991  0.6012 -1.3869
   51PVA     C9 8528   1.112   0.958   7.006  0.9394  0.4174  0.6314
   51PVA    H17 8529   1.066   0.998   6.915  0.3231 -1.1313  0.2324
   51PVA    H18 8530   1.170   1.043   7.044 -3.5221  4.0464  0.1864
   51PVA    C10 8531   1.008   0.920   7.129 -0.1558 -0.9461  0.4780
   51PVA    H19 8532   0.981   0.819   7.099  0.3640 -0.7859 -0.5771
   51PVA    H20 8533   1.079   0.927   7.213  3.5118  3.0818 -2.4701
   51PVA    C11 8534   0.873   1.014   7.142  0.2636  0.2638  0.6118
   51PVA    H21 8535   0.811   0.987   7.056 -1.3937 -0.5814  2.0196
   51PVA     O4 8536   0.928   1.145   7.120  0.1833  0.0701  0.3055
   51PVA    H22 8537   1.005   1.141   7.061 -1.2644  1.4338 -1.8350
   51PVA    C12 8538   0.786   0.992   7.267 -0.3842  0.3897  0.4194
   51PVA    H23 8539   0.815   0.890   7.297  3.7969  1.3201  0.1101
   51PVA    H24 8540   0.816   1.085   7.317 -1.5809  2.1185 -1.8852
   51PVA    C13 8541   0.626   0.993   7.250  0.0554  0.6441  1.1780
   51PVA    H25 8542   0.611   0.917   7.172  3.6290  1.6145 -0.6460
   51PVA    H26 8543   0.596   1.086   7.200  0.6214 -0.3786 -1.2037
   51PVA    C14 8544   0.522   0.954   7.366 -0.2471 -0.5429 -0.1644
   51PVA    H27 8545   0.546   0.851   7.395 -2.4921 -0.1405  3.7932
   51PVA     O5 8546   0.522   1.042   7.474  0.6063  0.8809  0.1544
   51PVA    H28 8547   0.598   0.998   7.516  0.2583 -4.3345 -3.5757
   51PVA    C15 8548   0.362   0.923   7.317 -0.8946  0.3135 -0.6087
   51PVA    H29 8549   0.339   0.943   7.212 -3.1450 -3.4961 -1.0542
   51PVA    H30 8550   0.352   0.814   7.304  1.1014  0.2643 -2.1671
   51PVA    C16 8551   0.241   0.950   7.417  0.5088  0.2161 -0.0281
   51PVA    H31 8552   0.270   0.895   7.507 -1.6032 -1.1416 -0.1124
   51PVA    H32 8553   0.258   1.056   7.438  1.4184  0.5964 -2.3914
   51PVA    C17 8554   0.083   0.958   7.396 -0.0796 -0.0921  0.8464
   51PVA    H33 8555   0.061   1.053   7.347  1.6338 -0.5608 -0.9502
   51PVA     O6 8556   0.036   0.860   7.297  1.0590 -0.1512 -0.7415
   51PVA    H34 8557   0.067   0.898   7.213  1.5649  1.0843 -0.0300
   51PVA    C18 8558   0.003   0.938   7.528  0.9077 -0.0702 -1.0284
   51PVA    H35 8559   7.763   0.828   7.537 -0.4124 -0.3613 -4.1221
   51PVA    H36 8560   0.066   0.974   7.610 -1.4589  3.4364 -0.5485
   51PVA    C19 8561   7.610   0.962   7.552  0.8189 -0.3263 -0.1909
   51PVA    H37 8562   7.570   0.866   7.588 -2.5211  1.4100  1.1591
   51PVA    H38 8563   7.548   0.974   7.463  1.7255  0.6487 -0.7223
   51PVA    C20 8564   7.543   1.058   7.668 -0.0084  1.2419  0.8093
   51PVA    H39 8565   7.642   1.094   7.701  2.5736 -2.2005 -2.2351
   51PVA     O7 8566   7.454   1.159   7.622 -0.5165 -0.7583  0.0284
   51PVA    H40 8567   7.444   1.233   7.684  3.3316 -0.6488  0.7897
   51PVA    C21 8568   7.475   0.984   7.797 -0.8352  0.4618 -0.1184
   51PVA    H41 8569   7.537   0.912   7.853  1.7555  2.2804 -0.4594
   51PVA    H42 8570   7.390   0.932   7.753 -0.0223 -1.1504  0.1167
   51PVA    C22 8571   7.430   1.091   7.898 -0.0628 -0.4365 -0.5565
   51PVA    H43 8572   7.506   1.169   7.891  1.3454 -1.3744  2.5625
   51PVA    H44 8573   7.339   1.140   7.860  0.3943  0.4844 -0.4611
   51PVA    C23 8574   7.410   1.071   8.052  0.2815  0.5119 -0.2966
   51PVA    H45 8575   7.507   1.056   0.003 -0.6050  2.0168  2.1818
   51PVA     O8 8576   7.321   0.958   8.072  0.0612 -0.8976  0.1345
   51PVA    H46 8577   7.380   0.881   8.059  1.0592 -0.1822  0.2994
   51PVA    C24 8578   7.367   1.193   0.047 -0.2867 -0.0789 -0.4342
   51PVA    H47 8579   7.258   1.199   0.047 -0.5118 -2.9560 -2.1614
   51PVA    H48 8580   7.389   1.287   8.092 -2.7471  1.2752  0.7799
   51PVA    C25 8581   7.431   1.217   0.195 -0.0366  0.7993 -0.2067
   51PVA    H49 8582   7.527   1.267   0.174  1.6826 -3.6559 -5.5463
   51PVA    H50 8583   7.469   1.126   0.243 -2.0580 -0.1427 -0.3196
   51PVA    C26 8584   7.347   1.309   0.293 -0.3857  0.0245 -0.5394
   51PVA    H51 8585   7.252   1.256   0.307 -0.2023  0.2579  2.3456
   51PVA     O9 8586   7.349   1.441   0.243  1.1230 -0.1146  0.0468
   51PVA    H52 8587   7.306   1.497   0.310 -0.1663  1.1166 -1.7268
   51PVA    C27 8588   7.393   1.339   0.452  0.8516 -0.0904 -0.0902
   51PVA    H53 8589   7.426   1.439   0.481  1.1990 -0.9777  2.9472
   51PVA    H54 8590   7.495   1.300   0.464  2.6828  4.3005  0.3560
   51PVA    C28 8591   7.294   1.322   0.582 -1.1230 -0.7764  0.7353
   51PVA    H55 8592   7.225   1.406   0.580 -0.8740 -0.5867 -0.5138
   51PVA    H56 8593   7.219   1.249   0.549  0.0291 -0.4013 -3.2217
   51PVA    C29 8594   7.344   1.309   0.741  0.2424  0.7830  1.3835
   51PVA    H57 8595   7.449   1.333   0.760  0.5614  0.2176  0.4329
   51PVA    O10 8596   7.339   1.171   0.757 -0.3655 -0.2664 -0.0817
   51PVA    H58 8597   7.425   1.148   0.796 -0.4470 -0.7464 -0.1852
   51PVA    C30 8598   7.262   1.379   0.850 -0.2187  0.5259  0.1146
   51PVA    H59 8599   7.164   1.413   0.815 -0.5204 -1.3042 -0.9677
   51PVA    H60 8600   7.322   1.468   0.874  2.7086 -0.5013 -2.6163
   51PVA    C31 8601   7.256   1.316   0.998 -1.7511  0.4788 -0.7502
   51PVA    H61 8602   7.358   1.320   1.039 -1.3336 -0.3421 -1.6617
   51PVA    H62 8603   7.213   1.216   0.981 -0.7407 -0.0547 -0.2736
   51PVA    C32 8604   7.158   1.384   1.095  0.4688  0.7817 -0.6138
   51PVA    H63 8605   7.213   1.450   1.163 -0.5788  0.4240  0.6268
   51PVA    O11 8606   7.038   1.446   1.047 -0.2501  0.7066 -0.0889
   51PVA    H64 8607   6.966   1.380   1.043  1.5437 -1.3293 -2.9908
   51PVA    C33 8608   7.102   1.284   1.202  0.0222 -0.3169 -0.6138
   51PVA    H65 8609   7.184   1.250   1.267  2.5613 -1.0857 -3.9097
   51PVA    H66 8610   7.053   1.200   1.150 -1.8053 -0.9494  1.9471
   51PVA    C34 8611   6.987   1.330   1.301 -0.7378  0.4276 -1.2631
   51PVA    H67 8612   6.998   1.438   1.319  2.0544 -0.1517  1.1566
   51PVA    H68 8613   6.885   1.326   1.259 -1.8324 -3.7115  1.2436
   51PVA    C35 8614   6.990   1.266   1.452  0.0554  0.1526  1.1624
   51PVA    H69 8615   7.087   1.299   1.491  2.7281 -1.4940 -3.3293
   51PVA    O12 8616   7.003   1.112   1.450  0.3241 -0.0226 -0.5775
   51PVA    H70 8617   7.095   1.082   1.442  1.1737  2.0623  0.6232
   51PVA    C36 8618   6.870   1.300   1.545 -0.2907  0.5033 -0.5233
   51PVA    H71 8619   6.851   1.407   1.529  1.3023  1.0330  0.8676
   51PVA    H72 8620   6.790   1.235   1.506 -0.2460  0.2900 -0.2641
   51PVA    C37 8621   6.874   1.308   1.705  1.2495  0.4099  0.0288
   51PVA    H73 8622   6.976   1.337   1.733  1.1990 -0.0485  0.7232
   51PVA    H74 8623   6.886   1.209   1.750  0.6093  0.5920  0.6219
   51PVA    C38 8624   6.752   1.372   1.780  0.4873 -0.7970 -0.9417
   51PVA    H75 8625   6.736   1.476   1.750 -2.2285 -0.5907  0.9247
   51PVA    O13 8626   6.620   1.292   1.776 -0.1559  0.6688 -0.0780
   51PVA    H76 8627   6.584   1.297   1.686 -0.4633 -0.3391 -0.0284
   51PVA    C39 8628   6.762   1.392   1.940  1.0894 -0.6088  1.4515
   51PVA    H77 8629   6.862   1.429   1.967  2.2169 -0.4726 -2.3616
   51PVA    H78 8630   6.754   1.289   1.977  5.2845 -1.7043 -0.1625
   51PVA    C40 8631   6.642   1.487   2.010  0.2621  0.5299 -1.0228
   51PVA    H79 8632   6.556   1.432   1.969  2.1398 -3.6525  0.0317
   51PVA    H80 8633   6.661   1.589   1.975 -0.7891  1.2371  0.3985
   51PVA    C41 8634   6.617   1.493   2.174  0.0512 -0.6355 -0.1318
   51PVA    H81 8635   6.715   1.488   2.224 -0.6797 -1.2197  1.2748
   51PVA    O14 8636   6.557   1.376   2.218 -0.2932  0.1325  0.1255
   51PVA    H82 8637   6.610   1.305   2.177 -1.8498  0.9804 -3.7965
   51PVA    C42 8638   6.548   1.622   2.226 -0.6095  0.0756  0.6711
   51PVA    H83 8639   6.624   1.700   2.213 -0.2759 -0.2069  0.9075
   51PVA    H84 8640   6.464   1.639   2.157 -2.3285 -1.0737  2.3703
   51PVA    C43 8641   6.491   1.616   2.374 -0.2747 -0.2836 -0.3504
   51PVA    H85 8642   6.573   1.594   2.444 -0.1597 -1.7007 -0.9098
   51PVA    H86 8643   6.416   1.536   2.379 -0.1199 -0.4303  4.8510
   51PVA    C44 8644   6.415   1.740   2.418  0.4127  0.3536 -0.4403
   51PVA    H87 8645   6.313   1.726   2.382  0.4375 -4.2728  0.5806
   51PVA    O15 8646   6.479   1.851   2.358 -0.0371 -0.2115  0.9270
   51PVA    H88 8647   6.496   1.831   2.265  0.8324  0.5407  0.9141
   51PVA    C45 8648   6.398   1.762   2.576  0.6170  0.2908  0.7730
   51PVA    H89 8649   6.503   1.785   2.601  0.9999  3.4585 -2.7259
   51PVA    H90 8650   6.378   1.659   2.607 -0.6303  0.1804 -0.3253
   51PVA    C46 8651   6.301   1.864   2.635  1.3760  0.1575  1.4107
   51PVA    H91 8652   6.203   1.826   2.604  1.0927 -1.5673  4.0631
   51PVA    H92 8653   6.311   1.964   2.590  0.9680 -1.9197 -4.0091
   51PVA    C47 8654   6.293   1.903   2.790  0.1365 -0.8650 -0.1546
   51PVA    H93 8655   6.374   1.970   2.819 -2.4872  2.7468 -0.4609
   51PVA    O16 8656   6.300   1.791   2.869 -0.1982  0.3672 -0.3887
   51PVA    H94 8657   6.240   1.723   2.834  0.7428 -1.0333  0.5593
   51PVA    C48 8658   6.162   1.995   2.823 -0.1485  0.3521 -1.8038
   51PVA    H95 8659   6.179   2.090   2.770 -0.0691 -0.3556 -3.0749
   51PVA    H96 8660   6.066   1.951   2.791 -0.2019 -3.1349  2.2616
   51PVA    C49 8661   6.152   2.038   2.978  0.2179  0.6353 -0.5740
   51PVA    H97 8662   6.256   2.064   2.999  1.5171 -1.2291 -3.8918
   51PVA    H98 8663   6.120   1.962   3.050 -0.8187  3.5051  2.2446
   51PVA    C50 8664   6.059   2.161   3.012 -0.3867  1.4935  0.9875
   51PVA    H99 8665   6.109   2.254   2.982  3.8386 -1.1678 -1.2042
   51PVA    O17 8666   5.930   2.156   2.945 -0.5231 -0.9082 -0.1435
   51PVA   H100 8667   5.868   2.153   3.020 -2.5938 -2.8462 -1.7874
   51PVA    C51 8668   6.017   2.145   3.162  0.3282 -0.1881 -0.1412
   51PVA   H101 8669   5.953   2.057   3.174  2.9176 -1.8017  3.9653
   51PVA   H102 8670   6.103   2.116   3.224  1.4288 -1.3046 -2.0873
   52PVA     C1 8671   4.333   1.884   1.462  1.0811 -1.3720  0.3569
   52PVA     H1 8672   4.281   1.788   1.468  1.8124 -1.7005  2.7787
   52PVA     H2 8673   4.389   1.857   1.552 -0.5157  0.1088  1.8758
   52PVA     C2 8674   4.421   1.874   1.338  0.1308 -1.0161  0.5436
   52PVA     H3 8675   4.490   1.959   1.342  0.6161 -1.3462 -0.3969
   52PVA     O1 8676   4.339   1.882   1.226 -0.0801 -0.0475  0.9823
   52PVA     H4 8677   4.388   1.891   1.142  1.0224 -0.0603  1.5992
   52PVA     C3 8678   4.508   1.740   1.339  0.4467  0.8003 -0.3462
   52PVA     H5 8679   4.442   1.653   1.351  0.4920  0.5159 -1.9581
   52PVA     H6 8680   4.547   1.724   1.440 -3.9561 -1.5482  1.2672
   52PVA     C4 8681   4.604   1.738   1.216 -0.4901  1.0977 -0.7069
   52PVA     H7 8682   4.553   1.795   1.138 -2.1103  2.5746  1.3067
   52PVA     H8 8683   4.702   1.780   1.244 -0.4638  1.7558 -1.7413
   52PVA     C5 8684   4.643   1.592   1.170 -0.5594 -0.6199  0.1407
   52PVA     H9 8685   4.687   1.536   1.253 -1.0898  2.2383  2.5224
   52PVA     O2 8686   4.524   1.516   1.143 -0.0782 -0.0048 -1.1047
   52PVA    H10 8687   4.446   1.571   1.160  0.1349  0.3225 -1.1880
   52PVA     C6 8688   4.750   1.582   1.053 -0.4541  0.8277  0.0203
   52PVA    H11 8689   4.815   1.671   1.055  2.1050 -0.9509  1.3765
   52PVA    H12 8690   4.826   1.507   1.076 -1.1793  0.7154  2.2973
   52PVA     C7 8691   4.701   1.536   0.911 -1.4402 -0.1985 -0.4949
   52PVA    H13 8692   4.624   1.610   0.888 -1.3036  0.2980  0.5770
   52PVA    H14 8693   4.655   1.437   0.923 -0.3061 -0.8000 -0.9422
   52PVA     C8 8694   4.794   1.546   0.783  0.4230 -0.2089  0.4932
   52PVA    H15 8695   4.895   1.519   0.816  1.1020  4.0615  2.7589
   52PVA     O3 8696   4.792   1.681   0.747 -1.0116  0.0639  0.7064
   52PVA    H16 8697   4.775   1.727   0.831  4.0788  1.8485  1.0814
   52PVA     C9 8698   4.739   1.459   0.663 -0.4792 -0.2578  0.2905
   52PVA    H17 8699   4.641   1.498   0.635 -0.6207 -2.3560 -2.6441
   52PVA    H18 8700   4.725   1.355   0.694  0.7026 -0.4629  0.1981
   52PVA    C10 8701   4.842   1.471   0.535  0.5413 -1.2260  0.9425
   52PVA    H19 8702   4.922   1.398   0.553  0.6521 -1.7485 -1.3524
   52PVA    H20 8703   4.902   1.562   0.527  0.8661 -1.5470 -4.6129
   52PVA    C11 8704   4.787   1.448   0.392  0.7995 -0.0386  0.1777
   52PVA    H21 8705   4.805   1.347   0.352  0.6982 -0.9507  2.3354
   52PVA     O4 8706   4.644   1.495   0.379  0.0012  0.3281 -1.0515
   52PVA    H22 8707   4.633   1.529   0.469  0.7263  1.7417 -1.4726
   52PVA    C12 8708   4.854   1.508   0.273  1.0959 -0.3183  0.6423
   52PVA    H23 8709   4.948   1.455   0.255  1.6516  0.9569 -0.2892
   52PVA    H24 8710   4.880   1.608   0.309 -5.7662  0.4865  5.2249
   52PVA    C13 8711   4.775   1.545   0.131 -0.7831  0.0172 -0.2571
   52PVA    H25 8712   4.718   1.636   0.154  2.6162  2.0535  0.9288
   52PVA    H26 8713   4.698   1.475   0.098 -0.8878  0.4704 -1.0168
   52PVA    C14 8714   4.863   1.581   0.002  0.6483 -0.7037 -0.4523
   52PVA    H27 8715   4.811   1.542   8.011  1.0136 -1.3249 -0.4001
   52PVA     O5 8716   4.984   1.506   8.093  0.2897  1.0345  0.5025
   52PVA    H28 8717   5.041   1.571   8.049 -1.0578  0.2015 -2.7960
   52PVA    C15 8718   4.885   1.728   8.064 -0.8532  0.1883 -0.0525
   52PVA    H29 8719   4.942   1.791   0.036 -0.4192 -0.2498 -0.0004
   52PVA    H30 8720   4.786   1.774   8.075 -2.4676 -2.0607 -3.4923
   52PVA    C16 8721   4.958   1.772   7.930  0.1469  0.3256 -0.2123
   52PVA    H31 8722   5.066   1.762   7.943  0.2719  0.2413 -1.2228
   52PVA    H32 8723   4.931   1.686   7.867 -2.1466 -0.6579  1.9464
   52PVA    C17 8724   4.909   1.908   7.870 -0.0814 -1.3636  0.3316
   52PVA    H33 8725   4.971   1.974   7.931 -0.0054  0.0565 -1.1988
   52PVA     O6 8726   4.776   1.946   7.901  0.1792 -0.2269 -0.6187
   52PVA    H34 8727   4.786   1.999   7.982  3.2470  0.6605 -1.4404
   52PVA    C18 8728   4.953   1.929   7.721 -1.3314 -0.2428 -0.2695
   52PVA    H35 8729   4.910   1.834   7.686 -1.4463 -1.7229  3.3970
   52PVA    H36 8730   5.061   1.928   7.705 -1.7887 -1.0889 -4.4303
   52PVA    C19 8731   4.878   2.043   7.642  0.9301 -0.2783  0.2806
   52PVA    H37 8732   4.857   2.127   7.709  4.7713 -0.0184  1.3995
   52PVA    H38 8733   4.775   2.008   7.626  0.8343 -1.0838  2.3032
   52PVA    C20 8734   4.952   2.104   7.508  0.5346  0.2509 -0.6363
   52PVA    H39 8735   4.934   2.212   7.523  1.3443  0.6398 -2.1918
   52PVA     O7 8736   5.085   2.070   7.488 -0.0033 -0.6751  0.0720
   52PVA    H40 8737   5.099   2.006   7.416 -1.7467 -1.2086  0.1618
   52PVA    C21 8738   4.890   2.088   7.369  1.3011 -0.0723 -0.0424
   52PVA    H41 8739   4.789   2.127   7.383  2.1200  1.9635  0.5377
   52PVA    H42 8740   4.869   1.981   7.364 -0.1074  0.2196 -0.5591
   52PVA    C22 8741   4.948   2.162   7.247  0.7039  0.6643 -0.6237
   52PVA    H43 8742   4.936   2.270   7.261 -1.1876  0.3811  0.3579
   52PVA    H44 8743   5.056   2.145   7.242  0.6010 -0.2297 -0.1348
   52PVA    C23 8744   4.870   2.121   7.105 -0.2463 -0.0823  0.1725
   52PVA    H45 8745   4.924   2.030   7.077  1.1917  0.7713  0.0292
   52PVA     O8 8746   4.732   2.088   7.125  0.1268 -0.0102 -0.3456
   52PVA    H46 8747   4.721   2.015   7.189  3.1948  1.1493  1.7009
   52PVA    C24 8748   4.874   2.215   6.977  0.1803  0.3756  0.5713
   52PVA    H47 8749   4.809   2.302   6.992  1.7881  1.6184  0.7263
   52PVA    H48 8750   4.971   2.264   6.959 -0.4299  2.0811  1.6766
   52PVA    C25 8751   4.846   2.166   6.829  0.1350 -0.2428 -0.6619
   52PVA    H49 8752   4.737   2.175   6.833  0.0769 -1.4017  1.0921
   52PVA    H50 8753   4.897   2.070   6.840 -1.7846 -1.2709 -0.2095
   52PVA    C26 8754   4.897   2.252   6.704  0.6917  0.3724  0.5480
   52PVA    H51 8755   4.810   2.299   6.657  0.2684 -1.4198 -0.5572
   52PVA     O9 8756   5.006   2.336   6.741  0.2633  1.2320  0.4225
   52PVA    H52 8757   4.986   2.387   6.822  1.2401  0.2510  1.3254
   52PVA    C27 8758   4.947   2.168   6.572  0.0813  0.4998  1.3136
   52PVA    H53 8759   4.916   2.063   6.562  1.2868  0.0258  2.3249
   52PVA    H54 8760   5.053   2.142   6.585  0.8104  3.7489  2.8112
   52PVA    C28 8761   4.942   2.233   6.426  0.0693 -0.3453 -0.1972
   52PVA    H55 8762   4.936   2.338   6.456  0.7831 -0.4961  0.5017
   52PVA    H56 8763   4.839   2.211   6.395 -0.4378 -2.7032  2.6885
   52PVA    C29 8764   5.045   2.205   6.308 -0.6209  0.2887 -0.8152
   52PVA    H57 8765   5.140   2.243   6.347  1.5297 -2.2385 -3.1917
   52PVA    O10 8766   5.069   2.064   6.283  0.5754  0.0976  0.0170
   52PVA    H58 8767   5.113   2.062   6.196 -0.3984 -2.1201 -0.4959
   52PVA    C30 8768   5.015   2.278   6.171 -1.4814  0.2067  0.5810
   52PVA    H59 8769   4.936   2.229   6.112 -0.9992 -1.6707  1.4205
   52PVA    H60 8770   4.993   2.383   6.192  1.4641  0.9985  0.1840
   52PVA    C31 8771   5.134   2.299   6.062  0.9530 -0.3844  0.5357
   52PVA    H61 8772   5.170   2.202   6.026  0.6134 -0.4328  0.3264
   52PVA    H62 8773   5.224   2.332   6.115  0.8299  1.7696 -0.4756
   52PVA    C32 8774   5.099   2.394   5.942 -0.6501 -0.9759 -0.6733
   52PVA    H63 8775   5.028   2.471   5.975  2.5545  1.7600  0.4504
   52PVA    O11 8776   5.215   2.474   5.918  0.9655 -0.0970  0.2697
   52PVA    H64 8777   5.228   2.533   5.995 -0.0782  2.6485 -1.4964
   52PVA    C33 8778   5.051   2.332   5.801  0.0826 -1.5592 -0.3427
   52PVA    H65 8779   5.105   2.238   5.783  2.3603 -0.3041 -0.4333
   52PVA    H66 8780   4.945   2.305   5.809  0.0083 -0.9979  0.7124
   52PVA    C34 8781   5.086   2.422   5.679 -0.5716 -0.2575  0.4331
   52PVA    H67 8782   5.037   2.518   5.701 -6.5459 -2.1750 -2.5120
   52PVA    H68 8783   5.194   2.441   5.678  0.0670 -3.4448 -0.1442
   52PVA    C35 8784   5.064   2.379   5.526  0.3120  0.0538 -1.4211
   52PVA    H69 8785   4.956   2.392   5.510  0.4539  2.3587 -0.8158
   52PVA    O12 8786   5.076   2.236   5.511 -0.1325 -1.1489  0.1963
   52PVA    H70 8787   5.058   2.213   5.418 -1.0180  3.5412 -1.0556
   52PVA    C36 8788   5.142   2.464   5.418 -1.2414  1.1469 -0.2369
   52PVA    H71 8789   5.074   2.547   5.395 -0.0555  2.4368  0.6863
   52PVA    H72 8790   5.236   2.496   5.467 -1.8240 -1.6875  3.1531
   52PVA    C37 8791   5.189   2.386   5.289  0.3454  0.7676  0.1251
   52PVA    H73 8792   5.263   2.308   5.308  1.1872  1.6838  0.6993
   52PVA    H74 8793   5.104   2.326   5.252  0.1438  0.7665  0.5729
   52PVA    C38 8794   5.248   2.482   5.181 -0.2830 -1.1484  0.0773
   52PVA    H75 8795   5.178   2.558   5.144  0.3988 -0.8696 -0.6559
   52PVA    O13 8796   5.357   2.538   5.259  0.1493  0.5331  0.1162
   52PVA    H76 8797   5.382   2.505   5.347  1.6501  4.2072  1.2758
   52PVA    C39 8798   5.294   2.412   5.046 -0.1241  0.4022 -1.9681
   52PVA    H77 8799   5.213   2.348   5.012 -0.3612  0.7292 -2.0251
   52PVA    H78 8800   5.370   2.337   5.074 -1.5796 -0.6172 -0.5684
   52PVA    C40 8801   5.341   2.505   4.929 -0.9367  0.9082 -0.4980
   52PVA    H79 8802   5.425   2.568   4.962  1.8234 -0.4283 -4.2369
   52PVA    H80 8803   5.271   2.589   4.925  4.5727  6.1611 -1.9381
   52PVA    C41 8804   5.355   2.440   4.790 -0.3557 -0.5602  0.3158
   52PVA    H81 8805   5.418   2.353   4.814  1.5653  1.4145  3.0202
   52PVA    O14 8806   5.223   2.397   4.762  1.2395  0.4381  0.0735
   52PVA    H82 8807   5.160   2.471   4.751  4.2856  2.9526 -2.5557
   52PVA    C42 8808   5.414   2.538   4.672  0.2807  1.4195 -1.6294
   52PVA    H83 8809   5.326   2.596   4.639 -0.5834 -1.0534 -4.0601
   52PVA    H84 8810   5.481   2.616   4.711  0.4274  1.6399 -2.2956
   52PVA    C43 8811   5.458   2.460   4.538 -0.6375  0.2296 -0.2025
   52PVA    H85 8812   5.495   2.363   4.574  0.2317  1.0858  1.3494
   52PVA    H86 8813   5.365   2.439   4.483 -3.3170  3.8790  2.4010
   52PVA    C44 8814   5.567   2.542   4.467  0.3569 -0.5052  0.6436
   52PVA    H87 8815   5.548   2.650   4.466 -0.2326 -0.5535  2.5046
   52PVA    O15 8816   5.680   2.551   4.548  0.2416  0.4048  0.5224
   52PVA    H88 8817   5.731   2.618   4.500  1.4901  0.3529  1.7239
   52PVA    C45 8818   5.626   2.470   4.323  0.4120 -0.8317 -0.7097
   52PVA    H89 8819   5.728   2.438   4.347  0.7276  2.0047  2.5126
   52PVA    H90 8820   5.565   2.382   4.299  4.5725 -5.2728  2.8689
   52PVA    C46 8821   5.615   2.536   4.181 -0.7645 -0.2887 -1.0651
   52PVA    H91 8822   5.510   2.537   4.152 -2.1134  1.8783  3.1353
   52PVA    H92 8823   5.648   2.640   4.186 -0.9427 -0.1352 -2.4758
   52PVA    C47 8824   5.699   2.451   4.073 -0.8550 -0.2829 -0.5921
   52PVA    H93 8825   5.800   2.434   4.112 -0.0742  4.8624  0.2508
   52PVA    O16 8826   5.613   2.341   4.035  0.2206 -0.6124  0.0952
   52PVA    H94 8827   5.525   2.380   4.043 -0.5859 -1.9494 -1.6356
   52PVA    C48 8828   5.727   2.533   3.946  0.7074  0.0712 -0.6177
   52PVA    H95 8829   5.636   2.573   3.902  0.1714  1.3235  1.4818
   52PVA    H96 8830   5.768   2.627   3.986  0.6983 -1.8100  4.6986
   52PVA    C49 8831   5.820   2.470   3.836  0.7055  1.0563  0.1833
   52PVA    H97 8832   5.894   2.403   3.881 -2.6890 -1.7136  2.0779
   52PVA    H98 8833   5.871   2.552   3.783  1.1655  0.6509 -0.0105
   52PVA    C50 8834   5.763   2.389   3.712  1.9497 -0.8653 -0.3778
   52PVA    H99 8835   5.690   2.457   3.669  3.5183  3.0353  2.5293
   52PVA    O17 8836   5.707   2.262   3.765 -0.8118 -0.4161  0.0183
   52PVA   H100 8837   5.677   2.296   3.851  0.9645  2.0402 -0.2047
   52PVA    C51 8838   5.870   2.358   3.612 -1.1070 -0.3950  0.5082
   52PVA   H101 8839   5.929   2.447   3.586 -1.1259  0.2392  2.4566
   52PVA   H102 8840   5.942   2.289   3.656  1.3071  1.5704 -0.1369
   53PVA     C1 8841   3.930   2.091   1.578  1.1834  0.4124 -0.0914
   53PVA     H1 8842   3.940   2.106   1.470 -0.8462 -1.8536 -0.6868
   53PVA     H2 8843   3.896   1.990   1.603  5.8879 -1.8396 -1.6086
   53PVA     C2 8844   3.810   2.180   1.627  0.0240  0.2906  0.0974
   53PVA     H3 8845   3.824   2.196   1.735 -0.3904  2.7213 -0.1438
   53PVA     O1 8846   3.816   2.304   1.558  0.4541  0.3954 -0.2011
   53PVA     H4 8847   3.910   2.324   1.541  0.5018  0.4813  0.1546
   53PVA     C3 8848   3.665   2.125   1.604  0.2059 -2.0083 -0.7635
   53PVA     H5 8849   3.591   2.207   1.604  2.0847 -0.2065 -1.8609
   53PVA     H6 8850   3.637   2.066   1.692  1.7569 -2.1592 -0.3391
   53PVA     C4 8851   3.653   2.047   1.476 -0.0411  1.1683 -0.2104
   53PVA     H7 8852   3.688   2.108   1.392  2.2621 -0.1757 -0.3299
   53PVA     H8 8853   3.714   1.956   1.480 -2.7333 -0.7896 -0.8908
   53PVA     C5 8854   3.506   1.997   1.440 -0.3785 -0.1765 -0.2792
   53PVA     H9 8855   3.449   2.082   1.401  1.3737  1.1182 -0.1678
   53PVA     O2 8856   3.454   1.934   1.555 -0.1109  0.9060  0.1015
   53PVA    H10 8857   3.373   1.881   1.546  1.0851 -0.9168 -0.4432
   53PVA     C6 8858   3.488   1.918   1.313 -0.1233 -0.3913  0.3749
   53PVA    H11 8859   3.383   1.927   1.282 -0.4320  1.5812  1.7578
   53PVA    H12 8860   3.487   1.812   1.341  1.7742 -1.5148 -3.2147
   53PVA     C7 8861   3.573   1.958   1.188 -0.3301 -0.4436  0.3837
   53PVA    H13 8862   3.563   2.066   1.173 -1.3384  0.1137  3.9971
   53PVA    H14 8863   3.672   1.941   1.232  0.0449  1.0401  0.1641
   53PVA     C8 8864   3.551   1.879   1.056  0.1812 -0.2119 -0.1497
   53PVA    H15 8865   3.443   1.882   1.037  0.0765 -0.4954  0.3792
   53PVA     O3 8866   3.578   1.739   1.100 -0.0251 -0.0490 -0.3840
   53PVA    H16 8867   3.619   1.737   1.188 -1.1570  0.7555  0.1824
   53PVA     C9 8868   3.639   1.915   0.926  0.0455 -0.3896  0.5871
   53PVA    H17 8869   3.741   1.876   0.942 -0.4598 -2.5468 -0.9520
   53PVA    H18 8870   3.630   2.024   0.918  3.5380  0.1221  1.8239
   53PVA    C10 8871   3.590   1.836   0.799  0.5713  0.0178 -0.1403
   53PVA    H19 8872   3.566   1.730   0.815 -5.2563 -0.8519 -8.1916
   53PVA    H20 8873   3.487   1.842   0.762  0.8959 -3.0063 -1.8063
   53PVA    C11 8874   3.687   1.855   0.680 -1.2170 -0.1723  0.4444
   53PVA    H21 8875   3.676   1.961   0.654 -3.0477  0.1201  2.1437
   53PVA     O4 8876   3.814   1.821   0.708 -0.3052 -0.9219 -0.9936
   53PVA    H22 8877   3.812   1.764   0.787 -1.1182 -0.1294 -0.4350
   53PVA    C12 8878   3.621   1.767   0.565 -0.2011  0.1103  0.0020
   53PVA    H23 8879   3.602   1.668   0.607  5.5664 -1.0159  0.8465
   53PVA    H24 8880   3.527   1.814   0.534 -0.0375  2.4696  2.6283
   53PVA    C13 8881   3.706   1.732   0.432  0.2504 -0.5432  0.5865
   53PVA    H25 8882   3.813   1.707   0.431  0.4583  0.2679  1.2158
   53PVA    H26 8883   3.703   1.821   0.367  1.1151  0.2793  1.6455
   53PVA    C14 8884   3.639   1.611   0.362  0.3462  0.0907  0.2349
   53PVA    H27 8885   3.541   1.659   0.347  0.5051  0.7901  1.3034
   53PVA     O5 8886   3.644   1.493   0.434  0.0473  0.2096 -0.1866
   53PVA    H28 8887   3.653   1.417   0.375  1.7007  1.2378 -1.3562
   53PVA    C15 8888   3.685   1.583   0.208 -0.8779  1.4645  0.4380
   53PVA    H29 8889   3.634   1.491   0.177 -1.1558  3.1072 -4.9161
   53PVA    H30 8890   3.787   1.543   0.197 -1.3288  0.7005 -1.2643
   53PVA    C16 8891   3.666   1.678   0.107  0.3580 -1.3378 -0.1419
   53PVA    H31 8892   3.572   1.732   0.124 -0.3829 -1.9736 -1.9658
   53PVA    H32 8893   3.744   1.755   0.108  0.5155 -1.5008  0.2759
   53PVA    C17 8894   3.639   1.613   8.067 -0.8349  0.1057 -0.0000
   53PVA    H33 8895   3.570   1.529   8.081  0.4475 -0.8946  0.4195
   53PVA     O6 8896   3.754   1.548   8.007 -0.0911  0.2054  0.0683
   53PVA    H34 8897   3.837   1.593   8.030  1.2597 -2.9416  2.0358
   53PVA    C18 8898   3.564   1.724   7.970  0.1206  0.5785 -0.1521
   53PVA    H35 8899   3.471   1.764   8.011  1.8715  4.6276  0.3228
   53PVA    H36 8900   3.634   1.802   7.939 -0.8112  2.1256  1.4187
   53PVA    C19 8901   3.512   1.652   7.840  0.2807 -0.2203 -0.6833
   53PVA    H37 8902   3.446   1.566   7.860 -0.0247  0.3317  0.8125
   53PVA    H38 8903   3.599   1.618   7.784  0.1574  1.1253 -1.7300
   53PVA    C20 8904   3.433   1.736   7.742  0.0195 -0.6168  0.2800
   53PVA    H39 8905   3.350   1.788   7.791 -0.1184  0.9904 -1.5506
   53PVA     O7 8906   3.519   1.846   7.689  0.5058  0.1188 -0.2112
   53PVA    H40 8907   3.571   1.807   7.616  2.0591  0.9520  0.4294
   53PVA    C21 8908   3.384   1.653   7.627  0.6655 -0.8023  1.2497
   53PVA    H41 8909   3.317   1.579   7.673  0.2264 -1.5614 -0.5214
   53PVA    H42 8910   3.314   1.686   7.548  0.9084 -1.3756  0.7838
   53PVA    C22 8911   3.505   1.592   7.546 -0.7097 -0.3402  1.2453
   53PVA    H43 8912   3.527   1.670   7.472 -1.3994 -2.0545 -0.8669
   53PVA    H44 8913   3.601   1.585   7.598 -0.0177 -3.2664 -0.1941
   53PVA    C23 8914   3.485   1.459   7.481 -1.1385 -0.7204  0.3242
   53PVA    H45 8915   3.412   1.455   7.399  0.4863  0.7417 -1.2662
   53PVA     O8 8916   3.475   1.371   7.585 -0.7253  0.1896  0.1772
   53PVA    H46 8917   3.549   1.386   7.646  0.1390 -0.3791 -0.6988
   53PVA    C24 8918   3.615   1.411   7.398 -0.0121  0.5420 -0.2361
   53PVA    H47 8919   3.656   1.480   7.323  1.7683 -1.3452 -1.1142
   53PVA    H48 8920   3.691   1.395   7.477 -0.6247 -0.7151  0.1178
   53PVA    C25 8921   3.619   1.260   7.346  0.2225 -0.6872 -0.7151
   53PVA    H49 8922   3.518   1.218   7.356  1.0877 -2.2902  4.9709
   53PVA    H50 8923   3.639   1.202   7.437 -3.3549  2.9775  2.8690
   53PVA    C26 8924   3.693   1.224   7.217 -1.2723 -0.2834 -0.2404
   53PVA    H51 8925   3.706   1.313   7.154  1.5303 -1.0396 -0.8798
   53PVA     O9 8926   3.819   1.179   7.254  0.0437 -0.9449  0.1571
   53PVA    H52 8927   3.824   1.121   7.332 -0.0254 -0.4111  0.5644
   53PVA    C27 8928   3.613   1.114   7.144  0.0775  0.7601 -0.3173
   53PVA    H53 8929   3.663   1.133   7.048 -1.0859  1.9227 -0.7367
   53PVA    H54 8930   3.511   1.143   7.115 -0.1753  0.9122  0.6946
   53PVA    C28 8931   3.618   0.962   7.197 -0.0206  1.5488  0.2819
   53PVA    H55 8932   3.706   0.913   7.153 -2.0738 -3.5481  1.1580
   53PVA    H56 8933   3.609   0.947   7.306  0.7736 -0.4126  0.1281
   53PVA    C29 8934   3.501   0.873   7.136 -1.5888  0.7387  0.7870
   53PVA    H57 8935   3.504   0.891   7.028  0.7733 -0.1398  0.6511
   53PVA    O10 8936   3.375   0.920   7.197 -0.2473 -0.1497 -0.7876
   53PVA    H58 8937   3.328   0.838   7.220  1.5490 -0.2417  3.4272
   53PVA    C30 8938   3.527   0.722   7.160 -0.5473  0.1717 -0.2749
   53PVA    H59 8939   3.625   0.685   7.128  0.8869  2.9103  0.6066
   53PVA    H60 8940   3.543   0.705   7.267  3.2108  0.1966 -0.7054
   53PVA    C31 8941   3.432   0.618   7.107  0.1147  0.6521 -0.1025
   53PVA    H61 8942   3.425   0.633   6.998  1.7178  0.1111 -0.3094
   53PVA    H62 8943   3.334   0.645   7.146  2.5508  3.0892  5.3220
   53PVA    C32 8944   3.467   0.463   7.130  0.0903  0.4771 -0.4768
   53PVA    H63 8945   3.488   0.448   7.237 -0.5239 -0.9455 -0.5293
   53PVA    O11 8946   3.574   0.427   7.055 -0.1905 -0.3275 -0.2800
   53PVA    H64 8947   3.595   0.503   6.999  3.8993 -3.4934 -3.6679
   53PVA    C33 8948   3.351   0.364   7.093 -0.6268  0.4291 -0.5234
   53PVA    H65 8949   3.402   0.267   7.090  2.1486  1.7227  0.7855
   53PVA    H66 8950   3.320   0.381   6.990 -3.7901 -7.2523 -1.4779
   53PVA    C34 8951   3.228   0.360   7.182  0.4861 -0.6915 -0.0054
   53PVA    H67 8952   3.252   0.346   7.288 -2.2067  4.5300  1.6886
   53PVA    H68 8953   3.181   0.459   7.178 -0.8284 -1.0838  2.9081
   53PVA    C35 8954   3.134   0.241   7.138  1.0275 -0.9968  0.1495
   53PVA    H69 8955   3.116   0.248   7.030  0.8154 -0.6408  0.2059
   53PVA    O12 8956   3.175   0.113   7.181 -0.1277 -0.0363 -0.0764
   53PVA    H70 8957   3.146   0.049   7.114 -1.9145  1.3402 -0.7060
   53PVA    C36 8958   2.991   0.253   7.194 -0.9488  0.8604  0.3821
   53PVA    H71 8959   2.998   0.289   7.298 -1.4811 -1.9173  1.4762
   53PVA    H72 8960   2.929   0.329   7.144  0.4364  2.2672  0.7134
   53PVA    C37 8961   2.901   0.128   7.187  0.9302  0.2049 -0.1338
   53PVA    H73 8962   2.935   0.040   7.242 -0.4595  0.1037  0.6037
   53PVA    H74 8963   2.901   0.109   7.079  0.7687  3.4292 -0.7996
   53PVA    C38 8964   2.751   0.129   7.232 -0.2120  1.0165 -0.1763
   53PVA    H75 8965   2.721   0.025   7.251  1.8487  0.6284  1.3519
   53PVA    O13 8966   2.747   0.202   7.348  0.3897  0.1217  1.0808
   53PVA    H76 8967   2.705   0.141   7.411  1.5686 -3.6761 -1.4515
   53PVA    C39 8968   2.672   0.192   7.117  0.3010 -0.7276 -0.2675
   53PVA    H77 8969   2.724   0.274   7.065 -0.3205 -0.2603 -0.1715
   53PVA    H78 8970   2.574   0.217   7.161  1.8733  0.3839  2.9408
   53PVA    C40 8971   2.631   0.080   7.017 -0.3133 -0.9748 -0.0290
   53PVA    H79 8972   2.726   0.032   6.990  2.7589  4.1300  0.2553
   53PVA    H80 8973   2.568   0.003   7.063  1.4941 -3.7689 -1.8919
   53PVA    C41 8974   2.561   0.133   6.886  0.8932  0.7462  0.2118
   53PVA    H81 8975   2.621   0.199   6.822  0.7488 -0.1289 -0.8396
   53PVA    O14 8976   2.427   0.184   6.932 -0.1471  0.0747  0.0995
   53PVA    H82 8977   2.361   0.160   6.865 -0.4251 -1.0031  0.7401
   53PVA    C42 8978   2.536   0.017   6.784 -0.6807 -0.0339  0.3623
   53PVA    H83 8979   2.486   7.627   6.847  0.0560 -0.5813  0.3091
   53PVA    H84 8980   2.461   0.047   6.709  0.8895 -2.8754 -2.5552
   53PVA    C43 8981   2.657   7.641   6.707 -0.1758 -0.3627  0.1857
   53PVA    H85 8982   2.738   7.613   6.775  0.2231 -0.6376 -0.3901
   53PVA    H86 8983   2.699   0.036   6.645 -0.8010 -0.4993 -0.4360
   53PVA    C44 8984   2.638   7.514   6.620 -0.4782  0.3769 -0.3160
   53PVA    H87 8985   2.642   7.426   6.686 -1.1657  0.2053 -0.4978
   53PVA    O15 8986   2.510   7.501   6.562 -1.1821 -0.3081  0.2860
   53PVA    H88 8987   2.504   7.573   6.496  3.7646 -0.2743 -0.4596
   53PVA    C45 8988   2.747   7.478   6.512 -0.8056 -0.1773  0.0174
   53PVA    H89 8989   2.848   7.498   6.551 -0.3124 -2.3986  0.0076
   53PVA    H90 8990   2.737   7.541   6.423 -1.1383  0.0333  0.2028
   53PVA    C46 8991   2.751   7.334   6.470 -0.0109  0.3230  0.7925
   53PVA    H91 8992   2.767   7.267   6.555  3.2817 -1.1884 -0.8178
   53PVA    H92 8993   2.653   7.311   6.428  0.6914 -2.4560  0.4643
   53PVA    C47 8994   2.867   7.317   6.370  0.2997 -0.5646 -0.6292
   53PVA    H93 8995   2.955   7.366   6.412  0.9639 -1.7203 -0.6164
   53PVA    O16 8996   2.831   7.365   6.240  0.8870 -1.8445 -0.4415
   53PVA    H94 8997   2.803   7.457   6.257 -0.0432 -1.8534 -1.7682
   53PVA    C48 8998   2.889   7.173   6.361 -0.1019 -0.2325 -0.2996
   53PVA    H95 8999   2.802   7.109   6.379  1.7947 -3.3243 -1.2858
   53PVA    H96 9000   2.896   7.148   6.255 -3.6225  1.3370 -1.0486
   53PVA    C49 9001   2.999   7.123   6.447  0.3649  0.0938 -0.4370
   53PVA    H97 9002   2.973   7.101   6.551  1.3474  1.6782  0.1773
   53PVA    H98 9003   3.083   7.194   6.455  0.9190 -0.4806 -0.9801
   53PVA    C50 9004   3.057   6.992   6.391 -1.0630  0.6480 -0.6008
   53PVA    H99 9005   2.969   6.927   6.389 -2.0408  1.9423 -2.6631
   53PVA    O17 9006   3.140   6.934   6.495 -1.1185 -0.1645  0.4048
   53PVA   H100 9007   3.210   6.886   6.449  0.1861  3.1496 -1.4559
   53PVA    C51 9008   3.147   7.007   6.260 -0.5771  0.6413  0.0665
   53PVA   H101 9009   3.089   7.066   6.189 -0.1651 -1.3668 -2.0834
   53PVA   H102 9010   3.232   7.069   6.290  3.0407 -3.3258 -0.9372
   54PVA     C1 9011   5.218   2.787   3.550  0.5180  0.3055 -1.0067
   54PVA     H1 9012   5.326   2.805   3.539  0.5582  3.4020  2.5546
   54PVA     H2 9013   5.164   2.822   3.461 -0.9028 -0.8786 -0.6490
   54PVA     C2 9014   5.185   2.891   3.666 -0.0922 -0.4244 -0.3154
   54PVA     H3 9015   5.265   2.967   3.659 -3.2066  3.2150  0.1752
   54PVA     O1 9016   5.196   2.838   3.800  0.4151 -0.0393  1.2043
   54PVA     H4 9017   5.107   2.845   3.840  1.4880 -0.4320  3.9073
   54PVA     C3 9018   5.049   2.957   3.632 -0.7828 -0.4541  0.0209
   54PVA     H5 9019   4.958   2.895   3.627 -2.9888  2.5107  0.6402
   54PVA     H6 9020   5.043   3.008   3.535  3.9703 -0.9737 -0.7469
   54PVA     C4 9021   5.020   3.060   3.745  0.0852  0.6730 -0.2733
   54PVA     H7 9022   5.027   3.005   3.840 -0.5964  1.6242  0.3485
   54PVA     H8 9023   5.103   3.132   3.740  0.5820  0.1407  0.1554
   54PVA     C5 9024   4.885   3.121   3.736 -1.2284  0.7295 -0.0662
   54PVA     H9 9025   4.850   3.110   3.633  1.7876 -2.3646 -0.9495
   54PVA     O2 9026   4.799   3.057   3.833  0.7238  0.0316  1.0134
   54PVA    H10 9027   4.843   3.049   3.919  1.4349 -0.2583  0.6335
   54PVA     C6 9028   4.885   3.269   3.779  0.4454 -0.9121 -0.4630
   54PVA    H11 9029   4.931   3.271   3.879 -1.5694  0.8294  0.5079
   54PVA    H12 9030   4.938   3.327   3.704 -2.9603  2.7288 -0.3956
   54PVA     C7 9031   4.746   3.334   3.787  0.0366 -0.5331  0.0100
   54PVA    H13 9032   4.697   3.281   3.870  2.1631 -3.2132 -0.2950
   54PVA    H14 9033   4.712   3.331   3.682 -1.8212 -1.2308  0.5825
   54PVA     C8 9034   4.736   3.487   3.824 -0.4464 -0.0528 -0.3182
   54PVA    H15 9035   4.792   3.547   3.751  0.8067  0.3735  0.9494
   54PVA     O3 9036   4.785   3.531   3.951  0.0328 -0.3570  0.0729
   54PVA    H16 9037   4.739   3.616   3.957 -0.7381 -0.7525 -0.1095
   54PVA     C9 9038   4.597   3.545   3.813 -0.0878 -0.1629  0.4972
   54PVA    H17 9039   4.543   3.478   3.744  0.6031 -1.2387  0.9694
   54PVA    H18 9040   4.538   3.524   3.904 -0.2692  1.6195  0.8149
   54PVA    C10 9041   4.601   3.707   3.773 -0.4043 -0.4927 -0.1464
   54PVA    H19 9042   4.665   3.749   3.852 -0.2336  0.0768 -0.5844
   54PVA    H20 9043   4.633   3.714   3.669 -0.4509 -2.1216 -0.2944
   54PVA    C11 9044   4.457   3.763   3.792  0.7419 -0.1122 -0.1824
   54PVA    H21 9045   4.390   3.704   3.729  0.8107  0.9915 -1.3585
   54PVA     O4 9046   4.432   3.740   3.928  0.4807  0.3967  0.2676
   54PVA    H22 9047   4.350   3.791   3.941  1.1102  0.9828  2.4297
   54PVA    C12 9048   4.435   3.912   3.736  1.3015 -0.0383 -0.2907
   54PVA    H23 9049   4.464   3.917   3.630  0.2085 -0.6927 -0.6358
   54PVA    H24 9050   4.513   3.970   3.787  0.3170 -1.2836  2.8815
   54PVA    C13 9051   4.288   3.970   3.760 -0.8042 -0.0498 -0.7704
   54PVA    H25 9052   4.276   3.932   3.863  2.6909 -1.4017 -0.7261
   54PVA    H26 9053   4.219   3.926   3.686  1.4643 -1.0967 -2.3632
   54PVA    C14 9054   4.268   4.124   3.748  0.6477 -0.2952  0.0450
   54PVA    H27 9055   4.310   4.165   3.841 -6.4028  0.7030  3.4882
   54PVA     O5 9056   4.331   4.170   3.630 -0.6638  0.4113  0.0347
   54PVA    H28 9057   4.283   4.130   3.555  0.0856 -1.4364  0.5027
   54PVA    C15 9058   4.121   4.179   3.765 -0.5992  0.5518 -0.1688
   54PVA    H29 9059   4.058   4.107   3.819 -0.1194 -1.1790 -1.7895
   54PVA    H30 9060   4.068   4.181   3.669  1.1116 -0.6073 -1.2064
   54PVA    C16 9061   4.126   4.318   3.841  0.5350 -0.6300 -0.2236
   54PVA    H31 9062   4.168   4.303   3.941 -0.2068  1.4492  0.4537
   54PVA    H32 9063   4.200   4.373   3.782 -0.4992 -0.7653 -1.6982
   54PVA    C17 9064   3.999   4.404   3.840 -0.6044 -0.3339 -0.8174
   54PVA    H33 9065   4.022   4.511   3.848  2.5950 -0.9420 -0.2789
   54PVA     O6 9066   3.938   4.392   3.722  0.1354  1.1283  1.2065
   54PVA    H34 9067   3.909   4.476   3.682 -0.6839 -0.7131 -2.5847
   54PVA    C18 9068   3.889   4.382   3.957  0.0928 -0.2413 -0.6075
   54PVA    H35 9069   3.813   4.456   3.931  1.7021  2.9945  3.0371
   54PVA    H36 9070   3.846   4.282   3.940 -1.0604  0.5811 -2.9473
   54PVA    C19 9071   3.934   4.411   4.101  0.2271  0.5595 -0.4002
   54PVA    H37 9072   4.036   4.451   4.095  0.9295 -1.0105  0.4392
   54PVA    H38 9073   3.942   4.312   4.148 -0.1732  0.6767 -0.0855
   54PVA    C20 9074   3.847   4.502   4.195 -0.2152  0.1526  0.2914
   54PVA    H39 9075   3.787   4.571   4.133 -3.4078  0.8934  3.8314
   54PVA     O7 9076   3.756   4.425   4.265  0.0346  0.3527 -0.3100
   54PVA    H40 9077   3.800   4.362   4.325 -3.4783 -0.9332  1.2110
   54PVA    C21 9078   3.938   4.585   4.296 -0.0684  0.1496 -0.4092
   54PVA    H41 9079   3.873   4.653   4.353  0.7518  0.5868  0.0272
   54PVA    H42 9080   3.999   4.655   4.238 -1.6309  0.6978 -1.4749
   54PVA    C22 9081   4.032   4.501   4.391 -0.3466 -1.2613 -0.6208
   54PVA    H43 9082   3.967   4.426   4.437 -0.9695  1.2822  3.0848
   54PVA    H44 9083   4.099   4.448   4.321 -0.5457 -1.0457 -0.9800
   54PVA    C23 9084   4.100   4.598   4.495 -0.4690  0.0314 -0.3593
   54PVA    H45 9085   4.038   4.643   4.574 -0.5276 -2.4589  1.1165
   54PVA     O8 9086   4.180   4.682   4.423  0.2110 -0.1418 -0.3377
   54PVA    H46 9087   4.208   4.765   4.465  2.0070  0.5872 -2.7788
   54PVA    C24 9088   4.200   4.523   4.585 -0.3736 -1.2467 -0.8005
   54PVA    H47 9089   4.292   4.475   4.548  0.7678 -0.1629  0.4913
   54PVA    H48 9090   4.159   4.430   4.627  0.6830 -0.9062  1.1440
   54PVA    C25 9091   4.238   4.608   4.714 -0.2182  0.0396  1.0475
   54PVA    H49 9092   4.145   4.595   4.770  0.5484 -3.5057  1.7629
   54PVA    H50 9093   4.250   4.716   4.699 -1.3600  0.3316  2.0675
   54PVA    C26 9094   4.375   4.548   4.787  0.2647  0.1842 -0.9539
   54PVA    H51 9095   4.458   4.558   4.717 -0.6197 -4.0441 -2.9322
   54PVA     O9 9096   4.374   4.407   4.813 -0.5226 -0.7206  0.3249
   54PVA    H52 9097   4.469   4.388   4.812 -0.2513  0.2661 -3.0059
   54PVA    C27 9098   4.405   4.610   4.927 -0.4126  0.4931 -0.0357
   54PVA    H53 9099   4.501   4.583   4.970  1.9234  2.0968 -3.7305
   54PVA    H54 9100   4.435   4.714   4.908 -2.7913  0.6455 -4.3518
   54PVA    C28 9101   4.287   4.591   5.027 -0.9964  0.5672 -0.0834
   54PVA    H55 9102   4.195   4.563   4.976 -0.4713 -3.8969  1.0255
   54PVA    H56 9103   4.312   4.522   5.108  1.0275  2.2780  0.8501
   54PVA    C29 9104   4.250   4.731   5.104 -0.1364  0.0685  0.1578
   54PVA    H57 9105   4.163   4.712   5.169  0.2720 -0.5633  0.5254
   54PVA    O10 9106   4.353   4.774   5.178 -0.0409  1.4377 -0.1791
   54PVA    H58 9107   4.418   4.743   5.113 -1.1889  0.3257 -0.8381
   54PVA    C30 9108   4.192   4.858   5.026 -0.4414 -0.3187 -1.0727
   54PVA    H59 9109   4.253   4.892   4.942  0.2371  3.9429  0.8418
   54PVA    H60 9110   4.097   4.824   4.985 -1.3465  0.0911  0.5775
   54PVA    C31 9111   4.167   4.984   5.125 -1.2272  1.0582 -0.1802
   54PVA    H61 9112   4.259   5.020   5.174  0.2118 -1.5346 -0.7961
   54PVA    H62 9113   4.094   4.961   5.203 -1.0154 -0.6939 -0.4609
   54PVA    C32 9114   4.101   5.090   5.045 -0.9887  0.0235  0.4831
   54PVA    H63 9115   4.004   5.052   5.008 -2.0912  3.4435 -0.4784
   54PVA    O11 9116   4.189   5.129   4.943  1.0147  0.0493 -1.1388
   54PVA    H64 9117   4.182   5.219   4.909  4.8840 -0.2319 -3.2352
   54PVA    C33 9118   4.037   5.192   5.132  0.2675 -0.3797 -0.5461
   54PVA    H65 9119   4.121   5.250   5.172 -0.5000  0.2305  0.2308
   54PVA    H66 9120   3.978   5.156   5.218 -0.0518  1.6354  0.1229
   54PVA    C34 9121   3.953   5.301   5.063  0.4730  0.0443  0.4089
   54PVA    H67 9122   4.024   5.361   5.005 -1.0978  2.4793  0.8843
   54PVA    H68 9123   3.883   5.263   4.987 -1.8120  3.1173  0.7880
   54PVA    C35 9124   3.863   5.394   5.152 -0.3352  0.0634 -1.3971
   54PVA    H69 9125   3.814   5.473   5.095  1.2067  1.5944 -0.6850
   54PVA    O12 9126   3.758   5.309   5.220 -0.4209  0.6710  0.0085
   54PVA    H70 9127   3.702   5.356   5.284  0.4438 -0.3869  1.6437
   54PVA    C36 9128   3.953   5.458   5.256 -0.9536  0.3179  1.2019
   54PVA    H71 9129   4.039   5.408   5.301  2.2971  3.6024 -0.8272
   54PVA    H72 9130   3.888   5.495   5.336 -1.3529  4.1566 -0.6639
   54PVA    C37 9131   4.012   5.592   5.189  0.1415 -0.9493  0.5322
   54PVA    H73 9132   3.931   5.666   5.198  1.4986  0.4719  1.4998
   54PVA    H74 9133   4.026   5.576   5.082 -0.9630 -4.6107  0.7807
   54PVA    C38 9134   4.137   5.625   5.266 -0.2631 -0.7367  0.6893
   54PVA    H75 9135   4.212   5.561   5.219 -2.0533 -0.1773 -3.3219
   54PVA    O13 9136   4.108   5.605   5.405 -0.8564  0.5981  0.1191
   54PVA    H76 9137   4.182   5.556   5.444  0.2607  0.7584 -1.6814
   54PVA    C39 9138   4.169   5.772   5.253 -1.4629  0.2400  0.9223
   54PVA    H77 9139   4.202   5.800   5.152  1.0586 -3.6321  0.4403
   54PVA    H78 9140   4.256   5.782   5.320 -0.7052  2.6310 -0.3214
   54PVA    C40 9141   4.058   5.880   5.297 -0.7315 -0.9196 -0.2719
   54PVA    H79 9142   3.976   5.893   5.226 -4.2834  1.2812  3.7505
   54PVA    H80 9143   3.999   5.850   5.385 -0.7321  0.5700  0.2644
   54PVA    C41 9144   4.127   6.008   5.346  0.9514  0.3189  0.8604
   54PVA    H81 9145   4.154   6.010   5.452  0.0454  0.7376  1.0999
   54PVA    O14 9146   4.248   6.047   5.273 -0.2230 -0.0564  0.3419
   54PVA    H82 9147   4.276   6.136   5.300 -3.1938  0.5935  1.6439
   54PVA    C42 9148   4.027   6.118   5.330 -0.1446  0.4148  0.5864
   54PVA    H83 9149   3.985   6.125   5.229  2.2117  1.9571 -0.3618
   54PVA    H84 9150   4.074   6.217   5.337 -1.9919  1.5710 -1.8033
   54PVA    C43 9151   3.913   6.113   5.434  0.7594  0.0501  0.0070
   54PVA    H85 9152   3.862   6.017   5.425  1.1590 -0.0374 -1.6106
   54PVA    H86 9153   3.952   6.124   5.536  1.3534 -0.9854 -0.0969
   54PVA    C44 9154   3.818   6.233   5.384  0.3259  0.0032 -0.1836
   54PVA    H87 9155   3.882   6.302   5.327 -1.0199 -0.0062 -1.7810
   54PVA    O15 9156   3.717   6.165   5.305 -0.2506 -0.2438 -0.1335
   54PVA    H88 9157   3.754   6.092   5.253  1.2999  1.1517 -1.0845
   54PVA    C45 9158   3.747   6.312   5.507 -0.4895 -0.6639  0.7781
   54PVA    H89 9159   3.823   6.349   5.576  1.8003  0.3872 -2.0908
   54PVA    H90 9160   3.704   6.226   5.560 -1.9048 -0.1954  0.4155
   54PVA    C46 9161   3.627   6.403   5.478  0.0121 -0.0934 -0.1066
   54PVA    H91 9162   3.636   6.456   5.382 -0.7044  0.4598  0.1217
   54PVA    H92 9163   3.546   6.333   5.457 -1.3804  1.1904  0.7800
   54PVA    C47 9164   3.609   6.522   5.575 -0.5361 -0.7515 -0.5053
   54PVA    H93 9165   3.584   6.489   5.677  0.4057  2.0076  0.7091
   54PVA    O16 9166   3.733   6.603   5.568  0.4540  0.3329 -0.9096
   54PVA    H94 9167   3.759   6.616   5.475  1.4158  2.5219 -0.3979
   54PVA    C48 9168   3.498   6.620   5.515  0.7870  0.1041 -0.6175
   54PVA    H95 9169   3.538   6.652   5.418 -4.1706 -0.4786 -3.1847
   54PVA    H96 9170   3.401   6.569   5.504  0.9760 -0.6424  0.8944
   54PVA    C49 9171   3.476   6.741   5.612  0.5471  0.5487 -0.6036
   54PVA    H97 9172   3.398   6.801   5.563 -0.3060 -1.3988 -1.7523
   54PVA    H98 9173   3.575   6.785   5.629 -0.3282  1.4025  2.8688
   54PVA    C50 9174   3.423   6.695   5.754  0.1309 -1.3973  0.1546
   54PVA    H99 9175   3.505   6.629   5.784  2.6255 -0.2100 -3.3854
   54PVA    O17 9176   3.306   6.610   5.740 -0.1934  1.2754 -0.0747
   54PVA   H100 9177   3.315   6.558   5.822 -1.7173 -2.6867 -2.1457
   54PVA    C51 9178   3.391   6.815   5.845  0.2439  1.6516 -0.6793
   54PVA   H101 9179   3.482   6.871   5.872  1.2701  1.2041 -2.9722
   54PVA   H102 9180   3.351   6.892   5.778  1.4510 -0.0540 -3.5240
   55PVA     C1 9181   4.847   2.536   3.388  1.0778 -1.3274 -1.0754
   55PVA     H1 9182   4.832   2.508   3.283  0.0003 -2.2186 -0.6958
   55PVA     H2 9183   4.845   2.449   3.455  2.6432 -0.8404 -0.3543
   55PVA     C2 9184   4.742   2.655   3.422 -0.3150  0.4960 -0.6453
   55PVA     H3 9185   4.776   2.705   3.514  0.1402 -0.4019 -0.3123
   55PVA     O1 9186   4.734   2.755   3.305 -0.3518  0.4897 -1.3514
   55PVA     H4 9187   4.720   2.836   3.358  0.2509  2.2041 -3.6340
   55PVA     C3 9188   4.590   2.614   3.464 -1.1595 -0.2785 -0.0953
   55PVA     H5 9189   4.582   2.552   3.554  2.5440 -0.1333  0.5064
   55PVA     H6 9190   4.570   2.541   3.384  1.6404  0.9256 -2.0849
   55PVA     C4 9191   4.471   2.720   3.496 -0.5984 -0.0108  0.3073
   55PVA     H7 9192   4.402   2.678   3.569 -1.5003  0.4011 -0.2944
   55PVA     H8 9193   4.496   2.813   3.549  0.0372 -2.1441  4.1257
   55PVA     C5 9194   4.373   2.731   3.370  1.2595  0.5365  0.5611
   55PVA     H9 9195   4.307   2.643   3.373  0.0398  1.4368  0.6152
   55PVA     O2 9196   4.455   2.741   3.249 -0.4619  0.1446  0.3352
   55PVA    H10 9197   4.530   2.691   3.286  0.9124  1.9934  0.1806
   55PVA     C6 9198   4.281   2.860   3.384 -0.5410  0.1242  0.9325
   55PVA    H11 9199   4.194   2.819   3.437 -1.8055 -3.4512 -3.2530
   55PVA    H12 9200   4.326   2.928   3.458 -0.6570 -1.1896  2.2600
   55PVA     C7 9201   4.254   2.969   3.265  0.6078  0.6623 -1.0083
   55PVA    H13 9202   4.196   2.916   3.188  1.1753 -3.1670  0.9626
   55PVA    H14 9203   4.340   2.979   3.197 -2.7557 -1.4503 -6.3213
   55PVA     C8 9204   4.198   3.106   3.322 -0.9374 -0.9146 -0.5313
   55PVA    H15 9205   4.242   3.098   3.422 -1.0979  0.9904 -0.2799
   55PVA     O3 9206   4.059   3.110   3.316  0.7713 -0.1236 -0.7533
   55PVA    H16 9207   4.025   3.098   3.226 -2.1682 -3.1257  0.5652
   55PVA     C9 9208   4.259   3.235   3.263 -0.2029  1.1610 -1.4786
   55PVA    H17 9209   4.179   3.269   3.197 -1.1521  0.4915 -0.6985
   55PVA    H18 9210   4.350   3.213   3.206 -0.6257 -0.4023 -1.5765
   55PVA    C10 9211   4.274   3.359   3.374 -0.3880 -0.3693  0.2323
   55PVA    H19 9212   4.173   3.392   3.402  0.5110  1.5366  1.4478
   55PVA    H20 9213   4.312   3.314   3.467  0.7970 -2.2576 -1.0943
   55PVA    C11 9214   4.361   3.485   3.342  0.5684 -0.0177 -0.3378
   55PVA    H21 9215   4.345   3.497   3.234  1.6091  0.0094 -0.4964
   55PVA     O4 9216   4.500   3.462   3.373 -1.0626  0.0198  0.0138
   55PVA    H22 9217   4.556   3.520   3.319 -2.2853 -2.3026 -4.2586
   55PVA    C12 9218   4.324   3.608   3.439  0.7205 -0.7108 -0.2336
   55PVA    H23 9219   4.214   3.607   3.438  0.4816 -1.2867  4.3062
   55PVA    H24 9220   4.364   3.601   3.541  1.3405  1.6772 -0.2350
   55PVA    C13 9221   4.360   3.747   3.378  0.7235 -0.6139  0.4069
   55PVA    H25 9222   4.342   3.732   3.271  2.1316  2.8827 -0.4579
   55PVA    H26 9223   4.468   3.763   3.371  0.5395  1.9070  2.0370
   55PVA    C14 9224   4.285   3.872   3.424 -0.0719  0.8131  0.0910
   55PVA    H27 9225   4.322   3.905   3.522  1.9722  2.7806 -1.2480
   55PVA     O5 9226   4.333   3.965   3.327  0.4452 -0.8732  0.4904
   55PVA    H28 9227   4.430   3.961   3.326  0.7316  0.8567 -4.1929
   55PVA    C15 9228   4.125   3.883   3.428 -0.2003 -0.5262 -0.1341
   55PVA    H29 9229   4.095   3.968   3.491  2.0474  0.3684 -0.1670
   55PVA    H30 9230   4.073   3.796   3.468 -3.1037 -0.8687 -4.0502
   55PVA    C16 9231   4.062   3.894   3.283  0.5367  0.3669 -0.2595
   55PVA    H31 9232   4.101   3.992   3.253  2.8251  0.8897  3.6959
   55PVA    H32 9233   4.114   3.820   3.221  0.3770  2.0763 -2.5494
   55PVA    C17 9234   3.913   3.866   3.253 -0.2232  1.2387 -0.3087
   55PVA    H33 9235   3.902   3.758   3.270 -3.4536  1.2372 -1.6175
   55PVA     O6 9236   3.825   3.906   3.348  0.3143 -0.4598  0.4130
   55PVA    H34 9237   3.771   3.965   3.293 -1.0451  1.5794  3.6649
   55PVA    C18 9238   3.852   3.885   3.105 -0.2574 -0.2931  0.8574
   55PVA    H35 9239   3.873   3.985   3.064 -4.9286  0.4987 -0.2074
   55PVA    H36 9240   3.922   3.830   3.041  0.2723  1.1211  0.1735
   55PVA    C19 9241   3.709   3.836   3.071  0.2303 -0.5855 -0.0935
   55PVA    H37 9242   3.641   3.877   3.147  1.3683  1.4712 -0.1021
   55PVA    H38 9243   3.692   3.728   3.065 -1.4340 -0.4622  1.4976
   55PVA    C20 9244   3.648   3.888   2.935 -0.6067  1.0143 -0.3335
   55PVA    H39 9245   3.689   3.979   2.890  0.6234  0.9784  0.6610
   55PVA     O7 9246   3.687   3.783   2.844  1.2836  0.4441  0.0401
   55PVA    H40 9247   3.649   3.815   2.761  2.8653  1.3856 -0.3586
   55PVA    C21 9248   3.500   3.904   2.916 -0.5299 -0.0713  0.9332
   55PVA    H41 9249   3.465   3.800   2.912  3.2818 -1.5501  1.1338
   55PVA    H42 9250   3.455   3.956   3.002 -0.8483  2.6169 -0.7490
   55PVA    C22 9251   3.451   3.964   2.789  1.1838  0.8334  0.3124
   55PVA    H43 9252   3.505   4.057   2.767 -4.5384  4.7154  0.5809
   55PVA    H44 9253   3.464   3.887   2.712 -0.0743  0.2783  0.6325
   55PVA    C23 9254   3.311   4.010   2.791  0.5599 -0.2171  1.4170
   55PVA    H45 9255   3.284   4.063   2.883  0.3171  1.8064  0.2599
   55PVA     O8 9256   3.310   4.112   2.681  0.0611  0.3086  0.5779
   55PVA    H46 9257   3.341   4.065   2.602 -5.4255 -0.0397 -1.7909
   55PVA    C24 9258   3.202   3.903   2.769  0.6034 -0.8849 -0.5078
   55PVA    H47 9259   3.209   3.857   2.670  0.5824 -4.2329  0.9252
   55PVA    H48 9260   3.227   3.818   2.833  1.6820  1.4873  2.4830
   55PVA    C25 9261   3.056   3.952   2.808  1.1023 -0.1022  0.4662
   55PVA    H49 9262   3.054   4.034   2.881  1.2523  2.6644 -2.4343
   55PVA    H50 9263   3.020   3.882   2.884  2.0762 -1.5420 -0.3608
   55PVA    C26 9264   2.953   3.993   2.701  0.2299  0.1191 -0.3196
   55PVA    H51 9265   2.935   3.901   2.645 -1.6286 -0.1538  0.6527
   55PVA     O9 9266   3.027   4.078   2.612 -0.0101  1.0040 -1.4029
   55PVA    H52 9267   3.116   4.041   2.619 -0.8866 -0.9852  4.3981
   55PVA    C27 9268   2.814   4.054   2.732  0.2185  0.0716 -1.2211
   55PVA    H53 9269   2.823   4.146   2.791  0.8087  0.7302 -2.2906
   55PVA    H54 9270   2.757   3.975   2.781 -2.1458  2.9343  1.0404
   55PVA    C28 9271   2.725   4.097   2.621 -0.4729  0.1929 -0.9771
   55PVA    H55 9272   2.768   4.193   2.588  0.6572  0.8313  2.0222
   55PVA    H56 9273   2.722   4.027   2.536  1.0352 -1.3343  0.1640
   55PVA    C29 9274   2.573   4.123   2.640  0.3366 -0.9867 -1.1885
   55PVA    H57 9275   2.549   4.188   2.725  1.6585  1.2493 -2.4118
   55PVA    O10 9276   2.506   4.006   2.663 -1.0572 -0.0959 -0.5872
   55PVA    H58 9277   2.529   3.936   2.599 -3.3469 -3.5648  1.9626
   55PVA    C30 9278   2.516   4.202   2.514 -0.5207  0.8002 -0.2666
   55PVA    H59 9279   2.581   4.285   2.485 -3.6853  3.1088 -1.2620
   55PVA    H60 9280   2.526   4.152   2.417  0.0438  0.7756 -0.1986
   55PVA    C31 9281   2.379   4.259   2.523  1.1679  0.9547  0.4695
   55PVA    H61 9282   2.356   4.321   2.611 -1.7333  1.2216 -0.3594
   55PVA    H62 9283   2.304   4.182   2.545  1.3334  0.7315  0.2533
   55PVA    C32 9284   2.342   4.339   2.395 -1.0782 -0.8651 -0.7348
   55PVA    H63 9285   2.315   4.261   2.322  1.7732 -0.1246 -2.7480
   55PVA    O11 9286   2.447   4.412   2.342  0.5894  0.1034  0.2584
   55PVA    H64 9287   2.428   4.432   2.249 -3.5964 -1.4138  0.5758
   55PVA    C33 9288   2.234   4.458   2.434  0.1307  0.2531  1.1190
   55PVA    H65 9289   2.234   4.535   2.356  0.4155 -2.0624 -1.2836
   55PVA    H66 9290   2.269   4.525   2.514  1.1419  0.6207  0.3836
   55PVA    C34 9291   2.088   4.406   2.448  1.0422 -0.1112  0.2700
   55PVA    H67 9292   2.073   4.343   2.359  0.0537 -1.2232  1.1826
   55PVA    H68 9293   2.059   4.361   2.544  1.7861  2.2378  1.6797
   55PVA    C35 9294   1.994   4.525   2.449  1.1162 -0.8152  0.6263
   55PVA    H69 9295   2.030   4.615   2.500 -0.1458 -0.4962  0.9830
   55PVA    O12 9296   1.983   4.558   2.305  0.7164  0.8230  0.0906
   55PVA    H70 9297   2.067   4.576   2.260  2.1210  1.4576  2.7697
   55PVA    C36 9298   1.853   4.476   2.489  0.6080 -0.5163  0.2552
   55PVA    H71 9299   1.807   4.391   2.437 -2.9220  0.3957  1.6493
   55PVA    H72 9300   1.872   4.447   2.593  0.9939 -0.4673  0.2022
   55PVA    C37 9301   1.745   4.583   2.492  0.5605 -0.0801 -0.1275
   55PVA    H73 9302   1.653   4.524   2.484 -0.4180  1.3186  0.4260
   55PVA    H74 9303   1.743   4.644   2.401 -1.1816 -1.8327 -1.3568
   55PVA    C38 9304   1.733   4.665   2.620 -0.7194  0.6906  0.6321
   55PVA    H75 9305   1.724   4.597   2.705 -2.5141 -0.5823 -0.5193
   55PVA    O13 9306   1.844   4.740   2.649 -0.9127  0.4068  0.4927
   55PVA    H76 9307   1.909   4.686   2.697 -2.2783 -1.7071  0.0867
   55PVA    C39 9308   1.602   4.749   2.604 -0.8817 -0.0966 -0.2314
   55PVA    H77 9309   1.531   4.678   2.560 -1.1783 -2.0654  3.1605
   55PVA    H78 9310   1.624   4.823   2.526 -1.1067  2.4358  1.9724
   55PVA    C40 9311   1.570   4.828   2.737  0.4689  0.8413 -0.4253
   55PVA    H79 9312   1.535   4.750   2.805  2.2186 -0.0633 -0.4955
   55PVA    H80 9313   1.664   4.851   2.790  1.2706 -0.7216 -1.0991
   55PVA    C41 9314   1.474   4.951   2.720 -0.3751 -0.4432  0.4566
   55PVA    H81 9315   1.429   4.932   2.622 -0.2719 -4.1774  1.0103
   55PVA    O14 9316   1.550   5.077   2.719  0.8892  0.6376 -0.0931
   55PVA    H82 9317   1.531   5.134   2.796  2.9664  0.5893  0.5183
   55PVA    C42 9318   1.363   4.955   2.826  0.4384 -0.6361  0.2552
   55PVA    H83 9319   1.292   4.872   2.815  1.2484 -1.1176 -1.8297
   55PVA    H84 9320   1.405   4.966   2.927 -0.9555 -2.2636  1.0553
   55PVA    C43 9321   1.272   5.087   2.785  0.3015  1.1176  0.2957
   55PVA    H85 9322   1.263   5.101   2.677 -4.0418 -2.1207 -0.0033
   55PVA    H86 9323   1.317   5.181   2.821 -4.5433  3.5513  0.7834
   55PVA    C44 9324   1.133   5.084   2.846  1.2776 -0.1727  0.3926
   55PVA    H87 9325   1.163   5.085   2.952  0.9827 -0.9000  0.4837
   55PVA    O15 9326   1.046   4.980   2.807 -1.0269  0.2597 -0.3621
   55PVA    H88 9327   1.104   4.904   2.791  4.7290  4.2867 -1.5029
   55PVA    C45 9328   1.042   5.211   2.832 -0.1983  0.0446  0.0182
   55PVA    H89 9329   1.093   5.304   2.861 -0.3988  0.2267 -0.2110
   55PVA    H90 9330   0.963   5.191   2.905  0.0371 -2.5240 -0.3568
   55PVA    C46 9331   0.986   5.238   2.687  0.8718  1.1447 -0.7124
   55PVA    H91 9332   1.036   5.203   2.596  1.0368 -0.8058  0.0725
   55PVA    H92 9333   0.890   5.186   2.677  2.8906 -3.9250  2.3214
   55PVA    C47 9334   0.960   5.390   2.664  0.5264 -0.0346  0.4072
   55PVA    H93 9335   1.050   5.452   2.663  0.9535 -0.5195 -3.4086
   55PVA    O16 9336   0.875   5.447   2.770 -0.0354 -0.4621  0.1029
   55PVA    H94 9337   0.940   5.442   2.843  2.6733  0.6303 -2.0469
   55PVA    C48 9338   0.902   5.424   2.517 -0.1758 -0.1782  0.1165
   55PVA    H95 9339   0.957   5.376   2.435  0.8230 -1.9835  1.7539
   55PVA    H96 9340   0.800   5.383   2.509 -1.9739  3.0658  3.3302
   55PVA    C49 9341   0.898   5.580   2.510  0.3317  0.0669 -0.3051
   55PVA    H97 9342   0.791   5.604   2.499  0.0695 -1.9469 -3.3648
   55PVA    H98 9343   0.947   5.635   2.591 -0.4935  2.1901 -1.1673
   55PVA    C50 9344   0.975   5.634   2.388 -0.8631  0.2532 -0.4702
   55PVA    H99 9345   1.082   5.620   2.409 -0.8838 -1.6358 -1.3422
   55PVA    O17 9346   0.950   5.573   2.256  0.3577  0.9867 -0.4984
   55PVA   H100 9347   1.023   5.600   2.198 -0.1891  1.6419 -0.8998
   55PVA    C51 9348   0.939   5.786   2.372  0.8672 -0.4168  0.8981
   55PVA   H101 9349   0.837   5.805   2.337  1.5121  0.2087 -0.7427
   55PVA   H102 9350   0.939   5.828   2.474 -2.4115  1.7263  0.1873
   56PVA     C1 9351   3.644   6.643   6.994  0.7178  0.0146  0.8478
   56PVA     H1 9352   3.738   6.595   6.962 -0.4575 -3.3065  1.9563
   56PVA     H2 9353   3.611   6.586   7.082 -2.5785 -0.6133 -0.6537
   56PVA     C2 9354   3.667   6.788   7.035 -1.0448 -1.4896 -0.3876
   56PVA     H3 9355   3.655   6.839   6.939 -1.4167 -0.3191  0.2550
   56PVA     O1 9356   3.806   6.811   7.081  0.2311  0.0452 -0.7088
   56PVA     H4 9357   3.866   6.801   7.005  2.0829  1.0748  0.5297
   56PVA     C3 9358   3.583   6.848   7.146  0.1293 -0.5850  0.5315
   56PVA     H5 9359   3.627   6.823   7.243 -0.7037 -1.5565  0.6753
   56PVA     H6 9360   3.482   6.806   7.136  0.0050  0.2152 -3.1370
   56PVA     C4 9361   3.568   7.008   7.121 -0.1334 -0.4260  0.2473
   56PVA     H7 9362   3.671   7.047   7.119  0.1436 -1.1442  0.2909
   56PVA     H8 9363   3.513   7.032   7.030 -0.3805 -0.5884  0.3534
   56PVA     C5 9364   3.489   7.079   7.230 -0.1844  0.0330  0.8669
   56PVA     H9 9365   3.384   7.054   7.212 -0.7524  3.6461 -1.9652
   56PVA     O2 9366   3.513   7.038   7.360  0.2653 -0.3737 -0.8193
   56PVA    H10 9367   3.424   7.029   7.397  0.8357 -4.1758  0.0174
   56PVA     C6 9368   3.476   7.230   7.206 -0.1079  0.4131  0.2866
   56PVA    H11 9369   3.578   7.270   7.197 -0.1718  0.4044 -0.5632
   56PVA    H12 9370   3.430   7.243   7.107 -3.5825  1.0305  1.8501
   56PVA     C7 9371   3.403   7.312   7.307  0.5980  0.0345  0.5266
   56PVA    H13 9372   3.419   7.283   7.412  1.5664  0.5312  0.5237
   56PVA    H14 9373   3.302   7.287   7.271  0.4136 -0.9769  1.6794
   56PVA     C8 9374   3.442   7.470   7.303 -1.0148  0.1097 -0.6258
   56PVA    H15 9375   3.442   7.499   7.197 -2.0727 -1.9267 -1.2384
   56PVA     O3 9376   3.573   7.509   7.363  0.2631  0.6107 -0.0406
   56PVA    H16 9377   3.646   7.493   7.300 -1.1948 -2.5182 -1.1345
   56PVA     C9 9378   3.328   7.546   7.374  0.9441  0.5745 -0.4776
   56PVA    H17 9379   3.309   7.486   7.463 -3.4606  0.4938 -1.2619
   56PVA    H18 9380   3.238   7.538   7.312  0.0599  2.0820  0.5495
   56PVA    C10 9381   3.350   0.013   7.406  0.6276 -0.0957  0.9172
   56PVA    H19 9382   3.435   0.019   7.476  0.4710  3.9486  1.0201
   56PVA    H20 9383   3.399   0.062   7.320 -0.0141  4.0060  2.6245
   56PVA    C11 9384   3.243   0.103   7.467 -0.7822 -0.1232 -1.3454
   56PVA    H21 9385   3.243   0.204   7.424  2.1848  0.7410  0.3789
   56PVA     O4 9386   3.110   0.046   7.445 -0.1929  0.4305  0.0618
   56PVA    H22 9387   3.095   0.051   7.349  3.1171 -2.4125 -0.8339
   56PVA    C12 9388   3.273   0.129   7.619 -0.1820 -0.0326  0.3573
   56PVA    H23 9389   3.279   0.039   7.681 -1.6694 -1.2807 -1.1701
   56PVA    H24 9390   3.375   0.167   7.605  0.1564 -1.9166 -4.4211
   56PVA    C13 9391   3.175   0.224   7.682 -0.0567 -0.5414  0.0949
   56PVA    H25 9392   3.077   0.194   7.644 -1.3347  1.8828  1.2477
   56PVA    H26 9393   3.176   0.321   7.630 -1.9206 -2.0868 -3.0901
   56PVA    C14 9394   3.165   0.227   7.842 -1.1271  0.2454 -0.9500
   56PVA    H27 9395   3.103   0.145   7.880 -2.1175  2.1326  1.8264
   56PVA     O5 9396   3.303   0.197   7.899 -0.0698  0.0272  0.5912
   56PVA    H28 9397   3.301   0.103   7.876 -0.3052 -0.9310  3.9817
   56PVA    C15 9398   3.124   0.354   7.916  0.9318  1.3626 -0.2130
   56PVA    H29 9399   3.024   0.381   7.879 -1.5598 -3.0959  2.3509
   56PVA    H30 9400   3.192   0.437   7.896  1.1301  1.0333 -0.9695
   56PVA    C16 9401   3.090   0.323   8.073 -0.2164 -0.0446 -0.3047
   56PVA    H31 9402   3.032   0.231   8.089 -1.1327  0.1823 -2.0904
   56PVA    H32 9403   3.185   0.292   0.021 -0.3977  2.0549  1.7241
   56PVA    C17 9404   3.032   0.443   0.060 -0.8593  0.5882 -0.0155
   56PVA    H33 9405   2.993   0.516   8.085 -1.7906 -1.0825 -1.2679
   56PVA     O6 9406   3.139   0.496   0.144  0.2965  1.0681 -0.2117
   56PVA    H34 9407   3.202   0.544   0.087 -0.0526  1.3857 -0.3384
   56PVA    C18 9408   2.911   0.406   0.148 -0.7660 -0.3367  0.3568
   56PVA    H35 9409   2.889   0.299   0.137 -0.6513 -0.2863 -0.4143
   56PVA    H36 9410   2.960   0.404   0.246 -0.3229 -5.0293  0.2576
   56PVA    C19 9411   2.788   0.502   0.140  1.1245 -0.6919 -0.5510
   56PVA    H37 9412   2.783   0.550   0.042 -1.2750 -2.0075 -1.1353
   56PVA    H38 9413   2.808   0.584   0.210 -0.1543 -0.6571 -0.2165
   56PVA    C20 9414   2.650   0.451   0.183 -0.0934 -0.0975  0.6981
   56PVA    H39 9415   2.621   0.385   0.100  0.4344 -0.1804  0.5772
   56PVA     O7 9416   2.676   0.400   0.308  0.2046  0.4503 -1.1265
   56PVA    H40 9417   2.746   0.333   0.302  0.3853  0.7497 -2.8564
   56PVA    C21 9418   2.532   0.565   0.180 -0.6083  0.2650  0.2707
   56PVA    H41 9419   2.541   0.635   0.096 -2.6334  4.1870  3.0151
   56PVA    H42 9420   2.555   0.626   0.268 -1.7414 -1.8585  2.1726
   56PVA    C22 9421   2.385   0.504   0.183  0.0038  0.1507  0.7217
   56PVA    H43 9422   2.368   0.460   0.085 -0.0851  2.0825 -0.1811
   56PVA    H44 9423   2.367   0.416   0.246  0.0494  1.1568  2.2118
   56PVA    C23 9424   2.282   0.616   0.199  0.7961 -1.0422 -0.5810
   56PVA    H45 9425   2.317   0.696   0.266 -1.8154  0.5271 -0.9439
   56PVA     O8 9426   2.285   0.677   0.071  0.0300 -0.6692 -0.6488
   56PVA    H46 9427   2.310   0.598   0.021 -0.5391 -0.5576 -1.1227
   56PVA    C24 9428   2.133   0.578   0.233 -0.4437  0.5768 -0.2448
   56PVA    H47 9429   2.082   0.642   0.159 -1.3217 -2.2449 -2.2867
   56PVA    H48 9430   2.104   0.475   0.206  0.6798  0.2800 -0.3567
   56PVA    C25 9431   2.094   0.584   0.388  0.2701 -0.1494  0.2852
   56PVA    H49 9432   2.125   0.684   0.422  2.2397 -0.7367  0.3193
   56PVA    H50 9433   2.163   0.517   0.440  3.3034  0.7995 -2.2324
   56PVA    C26 9434   1.953   0.573   0.439 -0.2047  0.8172 -0.6699
   56PVA    H51 9435   1.893   0.510   0.372 -1.5346  2.1724 -0.8258
   56PVA     O9 9436   1.886   0.694   0.436  0.2676  0.5760  0.7444
   56PVA    H52 9437   1.823   0.695   0.510 -4.3358 -3.3286 -2.4907
   56PVA    C27 9438   1.940   0.515   0.580  0.3546 -0.0689 -0.3033
   56PVA    H53 9439   1.930   0.410   0.548  1.2161 -0.4537  0.6656
   56PVA    H54 9440   2.039   0.521   0.625 -0.6327 -1.5164  2.2426
   56PVA    C28 9441   1.841   0.557   0.697 -0.4075 -0.3536 -0.2296
   56PVA    H55 9442   1.858   0.665   0.711  3.5225 -0.0661 -4.7179
   56PVA    H56 9443   1.737   0.554   0.661 -0.4176 -0.7026 -0.1689
   56PVA    C29 9444   1.873   0.486   0.821 -0.8260  0.4191 -0.5818
   56PVA    H57 9445   1.917   0.393   0.783  3.5199  0.8778  2.4684
   56PVA    O10 9446   1.966   0.544   0.906 -0.6542 -0.3133  0.1994
   56PVA    H58 9447   1.949   0.493   0.988 -1.1648 -1.1360 -0.4038
   56PVA    C30 9448   1.753   0.438   0.906  0.0398  0.1853  0.0642
   56PVA    H59 9449   1.706   0.532   0.939 -0.9741 -0.2242 -0.1808
   56PVA    H60 9450   1.685   0.407   0.826 -0.7021  2.8605 -0.4427
   56PVA    C31 9451   1.755   0.350   1.035  0.0007  0.1332  0.1410
   56PVA    H61 9452   1.806   0.399   1.118  3.6894  0.1905 -1.9532
   56PVA    H62 9453   1.816   0.259   1.030  0.2581  0.0708  2.8318
   56PVA    C32 9454   1.607   0.316   1.073  1.2345  0.5873 -0.1145
   56PVA    H63 9455   1.529   0.354   1.006  0.1201 -2.3522 -0.6726
   56PVA    O11 9456   1.593   0.366   1.209 -0.6994  0.6804 -0.1236
   56PVA    H64 9457   1.504   0.405   1.219 -0.8677  1.3869 -3.1754
   56PVA    C33 9458   1.559   0.161   1.088  0.6241 -1.0892 -0.0113
   56PVA    H65 9459   1.569   0.119   1.189 -0.8628 -2.7486 -0.4957
   56PVA    H66 9460   1.648   0.121   1.038  0.8049 -0.5279 -0.1452
   56PVA    C34 9461   1.428   0.104   1.027  0.3426 -0.4405  0.9611
   56PVA    H67 9462   1.343   0.166   1.060  1.0457  0.1196  1.7755
   56PVA    H68 9463   1.430   0.134   0.922  0.1126  3.5937  1.9231
   56PVA    C35 9464   1.402   7.637   1.029 -0.6392 -0.9147 -0.4481
   56PVA    H69 9465   1.437   7.610   0.929 -0.8916  1.6697 -1.3216
   56PVA    O12 9466   1.494   7.574   1.122  0.2012  0.6959  0.9274
   56PVA    H70 9467   1.571   7.565   1.063 -1.1581  1.1072 -0.9968
   56PVA    C36 9468   1.242   7.599   1.024  0.6111  0.2265 -0.3382
   56PVA    H71 9469   1.172   7.680   1.050  0.1273  0.8186 -3.1886
   56PVA    H72 9470   1.213   7.570   0.923  4.1475 -3.9870 -0.4385
   56PVA    C37 9471   1.226   7.454   1.103  0.0927 -0.2960 -0.6442
   56PVA    H73 9472   1.294   7.373   1.073  2.3033 -1.2798  5.6531
   56PVA    H74 9473   1.275   7.478   1.198 -1.0493  0.4332 -0.2211
   56PVA    C38 9474   1.080   7.423   1.128  0.9044  0.2108 -0.6092
   56PVA    H75 9475   1.036   7.515   1.169  1.4718  0.4096 -0.4477
   56PVA    O13 9476   1.017   7.376   1.006 -0.2417  0.2554  0.6716
   56PVA    H76 9477   0.927   7.413   1.006 -0.1151  0.5634  0.8989
   56PVA    C39 9478   1.056   7.313   1.234 -0.4308  1.2100 -0.6524
   56PVA    H77 9479   0.947   7.305   1.243 -0.5198 -1.6942 -2.8425
   56PVA    H78 9480   1.089   7.357   1.329  2.4522 -1.4343 -0.2620
   56PVA    C40 9481   1.130   7.181   1.219  0.4647 -0.5778 -0.6982
   56PVA    H79 9482   1.239   7.192   1.214  0.6956 -1.0649  1.8639
   56PVA    H80 9483   1.089   7.146   1.124 -0.5767  2.9701 -1.7052
   56PVA    C41 9484   1.074   7.095   1.349 -0.6510 -0.0109  0.1550
   56PVA    H81 9485   0.972   7.132   1.363 -0.9280 -1.0592  1.0819
   56PVA    O14 9486   1.168   7.126   1.455 -0.4240  0.2933 -0.5460
   56PVA    H82 9487   1.253   7.115   1.409 -0.0750  1.0950 -0.1079
   56PVA    C42 9488   1.052   6.943   1.310  0.8211 -0.4509 -0.1182
   56PVA    H83 9489   0.978   6.928   1.231  1.4140 -0.3592 -0.7004
   56PVA    H84 9490   1.146   6.903   1.271  0.8345 -2.2174  1.5854
   56PVA    C43 9491   1.019   6.844   1.421 -0.5131 -1.3540 -0.7185
   56PVA    H85 9492   0.936   6.881   1.481 -0.3255 -2.5916  0.3480
   56PVA    H86 9493   1.108   6.848   1.484 -0.3964 -3.7037 -0.6227
   56PVA    C44 9494   0.977   6.699   1.371  1.0540 -1.0075  0.6408
   56PVA    H87 9495   0.869   6.714   1.364  1.1583 -0.0219  0.8877
   56PVA    O15 9496   1.024   6.652   1.244  0.0452 -1.3972  0.6252
   56PVA    H88 9497   1.114   6.689   1.234 -0.4003  0.2183  2.0927
   56PVA    C45 9498   1.010   6.586   1.472 -0.4523 -0.1831 -0.2767
   56PVA    H89 9499   0.980   6.632   1.567 -2.1255  1.1983 -1.4284
   56PVA    H90 9500   1.117   6.565   1.486  0.1656  0.2154 -3.6219
   56PVA    C46 9501   0.922   6.449   1.459 -0.4828  0.3160 -0.0576
   56PVA    H91 9502   0.817   6.477   1.449 -1.5527 -2.7183  1.7278
   56PVA    H92 9503   0.935   6.422   1.353  1.7870  2.6047 -0.4605
   56PVA    C47 9504   0.950   6.326   1.558  0.2123 -1.1490  0.7727
   56PVA    H93 9505   1.049   6.288   1.532  0.4119  0.5763 -1.2744
   56PVA    O16 9506   0.865   6.217   1.525 -0.2152  0.1160  0.3830
   56PVA    H94 9507   0.922   6.172   1.460  0.3342  0.7542  0.4083
   56PVA    C48 9508   0.951   6.366   1.710 -1.1993 -0.1960  0.9702
   56PVA    H95 9509   1.035   6.434   1.730  1.2157 -3.3686  2.6026
   56PVA    H96 9510   0.858   6.420   1.729 -1.0747  0.9803 -1.4010
   56PVA    C49 9511   0.968   6.239   1.791  1.1446  0.0727  0.5565
   56PVA    H97 9512   0.992   6.149   1.733  1.6026  0.1551  0.6113
   56PVA    H98 9513   0.864   6.213   1.815  1.8050  0.0058  3.8954
   56PVA    C50 9514   1.041   6.231   1.923 -0.4504  1.0143 -1.4726
   56PVA    H99 9515   1.024   6.325   1.977 -0.6168  0.1433  0.0593
   56PVA    O17 9516   1.179   6.206   1.906  0.5778  0.0112 -0.9968
   56PVA   H100 9517   1.172   6.109   1.915 -0.5561  0.0202 -1.6096
   56PVA    C51 9518   0.978   6.124   2.022  0.3086  0.2270 -0.0177
   56PVA   H101 9519   0.882   6.175   2.036  1.2652  3.7955 -4.3933
   56PVA   H102 9520   0.963   6.032   1.963  4.3255  0.4220 -1.6399
   57PVA     C1 9521   3.285   6.440   6.729  0.9695  0.0871 -0.2033
   57PVA     H1 9522   3.221   6.417   6.815 -1.9009 -0.1377 -2.2677
   57PVA     H2 9523   3.289   6.548   6.711  0.8863 -0.3351 -3.2609
   57PVA     C2 9524   3.204   6.384   6.605  0.0210 -1.5909 -0.2370
   57PVA     H3 9525   3.158   6.285   6.614  0.2163 -1.7084 -0.5203
   57PVA     O1 9526   3.288   6.357   6.497  1.0897  0.7648 -0.1798
   57PVA     H4 9527   3.361   6.320   6.550 -0.4321 -3.0500 -0.4978
   57PVA     C3 9528   3.101   6.484   6.555 -0.7499  0.4683 -0.5674
   57PVA     H5 9529   3.059   6.547   6.635 -0.9317  3.2985 -2.7238
   57PVA     H6 9530   3.151   6.573   6.514 -2.3654  0.4464 -2.7575
   57PVA     C4 9531   2.984   6.432   6.473 -0.2214  1.1251  0.1089
   57PVA     H7 9532   2.925   6.356   6.527 -2.3832  1.4418 -1.6576
   57PVA     H8 9533   3.025   6.364   6.397 -2.0190 -1.5687  1.3837
   57PVA     C5 9534   2.898   6.542   6.413 -0.1485 -0.8269 -0.3762
   57PVA     H9 9535   2.845   6.582   6.500 -0.3651  0.3859 -1.0430
   57PVA     O2 9536   2.985   6.643   6.356  0.2075  0.0034 -0.1335
   57PVA    H10 9537   2.940   6.729   6.358 -1.9315 -1.0067 -1.1174
   57PVA     C6 9538   2.799   6.491   6.296  0.1924 -0.1958  0.3547
   57PVA    H11 9539   2.694   6.501   6.328 -0.3090 -2.7774 -0.2342
   57PVA    H12 9540   2.810   6.572   6.223 -3.7886 -1.1132 -1.5272
   57PVA     C7 9541   2.816   6.341   6.244  0.9924 -0.2128 -0.9425
   57PVA    H13 9542   2.755   6.277   6.310  1.7254  1.3445  1.3955
   57PVA    H14 9543   2.922   6.314   6.248  0.5555 -2.1325 -1.1049
   57PVA     C8 9544   2.766   6.337   6.101 -0.0117  0.1465  0.4810
   57PVA    H15 9545   2.815   6.412   6.037  1.0221 -0.2144  0.8239
   57PVA     O3 9546   2.625   6.360   6.108 -0.5107  0.0805  0.3639
   57PVA    H16 9547   2.630   6.456   6.091  0.5669 -0.2688 -1.6259
   57PVA     C9 9548   2.803   6.194   6.042 -0.0497  0.2113 -1.8687
   57PVA    H17 9549   2.848   6.132   6.121 -1.8389 -3.0522 -3.1974
   57PVA    H18 9550   2.713   6.131   6.040 -0.4265  0.2240  2.8216
   57PVA    C10 9551   2.891   6.185   5.910 -0.2083  0.7317  0.3085
   57PVA    H19 9552   2.990   6.229   5.924  0.4711  0.0795 -2.0301
   57PVA    H20 9553   2.837   6.235   5.828  0.2917 -0.2442 -0.6350
   57PVA    C11 9554   2.910   6.029   5.877 -0.0514 -1.0617 -1.0190
   57PVA    H21 9555   2.956   5.989   5.968  0.9900 -0.2698 -1.1702
   57PVA     O4 9556   2.788   5.972   5.851 -1.2714  0.2187 -1.2490
   57PVA    H22 9557   2.762   6.016   5.769 -2.4974 -0.7652 -1.4203
   57PVA    C12 9558   3.010   5.997   5.758 -0.2086  0.8487 -0.8809
   57PVA    H23 9559   3.107   6.001   5.808 -0.0533 -3.2362 -0.5029
   57PVA    H24 9560   2.981   6.051   5.667 -2.3911  1.1130 -0.1126
   57PVA    C13 9561   3.002   5.841   5.725 -0.5787 -0.2680 -0.0465
   57PVA    H25 9562   3.023   5.792   5.821 -3.6552 -0.3639  0.6739
   57PVA    H26 9563   2.914   5.816   5.666  3.2100 -1.6498 -5.9164
   57PVA    C14 9564   3.118   5.808   5.627 -0.4387  0.7161 -0.1633
   57PVA    H27 9565   3.147   5.901   5.577 -1.7505 -0.8540 -4.2502
   57PVA     O5 9566   3.076   5.730   5.517  0.6918  0.8821  0.3488
   57PVA    H28 9567   3.045   5.808   5.469  1.2118 -0.1695 -1.8268
   57PVA    C15 9568   3.246   5.748   5.680 -0.7604  0.0961 -0.7955
   57PVA    H29 9569   3.246   5.639   5.664 -0.1081  0.0132 -0.2723
   57PVA    H30 9570   3.261   5.756   5.788  2.6254 -2.3945 -0.9149
   57PVA    C16 9571   3.370   5.797   5.603 -0.7341 -0.4555  0.0721
   57PVA    H31 9572   3.353   5.774   5.497  3.8701  1.6250 -1.3986
   57PVA    H32 9573   3.374   5.906   5.611  0.5494 -0.5889  1.9859
   57PVA    C17 9574   3.507   5.740   5.658 -0.1555 -0.3424  0.7954
   57PVA    H33 9575   3.512   5.634   5.631  2.0178 -0.6516  2.2274
   57PVA     O6 9576   3.524   5.755   5.794  0.6629  0.1618  0.6186
   57PVA    H34 9577   3.471   5.697   5.852 -4.7847  0.5503 -3.2313
   57PVA    C18 9578   3.634   5.794   5.585 -0.3989 -0.5791  0.5404
   57PVA    H35 9579   3.604   5.787   5.479 -0.9806  0.8831  0.5958
   57PVA    H36 9580   3.628   5.902   5.601 -3.1011  0.4851 -5.1441
   57PVA    C19 9581   3.759   5.710   5.603 -0.1340  0.6181  1.0344
   57PVA    H37 9582   3.825   5.754   5.527  0.8595  0.4144  1.7574
   57PVA    H38 9583   3.735   5.609   5.567  0.6790  0.5934  0.5366
   57PVA    C20 9584   3.854   5.694   5.733  0.4716  0.3322 -0.4863
   57PVA    H39 9585   3.932   5.745   5.677  0.0478  0.0580 -1.3505
   57PVA     O7 9586   3.807   5.765   5.847 -0.9035  0.5923 -0.3352
   57PVA    H40 9587   3.711   5.752   5.853 -0.8932 -0.3644 -1.7883
   57PVA    C21 9588   3.891   5.553   5.773 -0.5067 -0.5538 -0.3413
   57PVA    H41 9589   3.801   5.499   5.806  1.2988 -2.5047  1.7225
   57PVA    H42 9590   3.955   5.555   5.861  1.0830 -1.1122 -1.4465
   57PVA    C22 9591   3.975   5.476   5.668  0.3531 -0.5555 -0.3160
   57PVA    H43 9592   3.946   5.493   5.564  1.8629  1.4707 -0.4662
   57PVA    H44 9593   4.082   5.497   5.678 -0.0177  2.4756 -1.7920
   57PVA    C23 9594   3.951   5.330   5.715 -0.1087 -0.0017 -0.3135
   57PVA    H45 9595   3.846   5.310   5.740 -1.1930  5.1979  0.3639
   57PVA     O8 9596   4.027   5.287   5.823 -0.3282 -0.0726  0.5570
   57PVA    H46 9597   4.034   5.358   5.889 -2.5182  0.3506  0.4032
   57PVA    C24 9598   3.986   5.250   5.584  0.4669  0.2496 -0.0957
   57PVA    H47 9599   3.923   5.266   5.495  1.3798  0.6239 -0.6852
   57PVA    H48 9600   4.082   5.293   5.555 -1.8483  4.7209 -2.2202
   57PVA    C25 9601   4.001   5.096   5.620 -0.1096 -0.4514  0.7686
   57PVA    H49 9602   3.924   5.062   5.691 -1.2602  0.5519  0.0500
   57PVA    H50 9603   4.103   5.094   5.661  2.9066  0.3557 -5.4730
   57PVA    C26 9604   4.003   4.987   5.504 -0.3546 -0.8187  0.3008
   57PVA    H51 9605   4.077   5.014   5.427 -1.3143 -0.8969 -0.6755
   57PVA     O9 9606   3.867   4.990   5.435 -0.1251 -0.7999 -0.1279
   57PVA    H52 9607   3.891   5.045   5.359 -0.2374 -0.1914  0.2716
   57PVA    C27 9608   4.030   4.838   5.552 -0.9364 -0.0010 -0.0929
   57PVA    H53 9609   3.937   4.782   5.570  1.1457 -3.2590  1.2779
   57PVA    H54 9610   4.082   4.830   5.648 -0.6085 -1.2970 -0.3670
   57PVA    C28 9611   4.113   4.760   5.439 -0.0156  1.2798  0.4218
   57PVA    H55 9612   4.047   4.774   5.353  0.0542  2.0569  0.4808
   57PVA    H56 9613   4.197   4.822   5.405 -0.5760  3.3998  2.5912
   57PVA    C29 9614   4.147   4.612   5.476 -0.6160 -0.0114  0.3798
   57PVA    H57 9615   4.074   4.598   5.556 -0.9041 -2.0806 -0.2040
   57PVA    O10 9616   4.281   4.604   5.523 -0.1800 -0.5633  0.2158
   57PVA    H58 9617   4.339   4.612   5.445  0.6994 -1.2395  0.7694
   57PVA    C30 9618   4.114   4.511   5.353  0.1299 -0.5245 -0.2518
   57PVA    H59 9619   4.022   4.549   5.307  0.2599 -1.1335 -1.0299
   57PVA    H60 9620   4.197   4.515   5.282  2.1378 -1.7671  1.8895
   57PVA    C31 9621   4.099   4.363   5.403  0.4639  0.4167  0.5578
   57PVA    H61 9622   4.020   4.387   5.474  0.2626 -1.8794  1.2066
   57PVA    H62 9623   4.185   4.332   5.465  2.5347  3.9241 -0.2723
   57PVA    C32 9624   4.057   4.262   5.289 -0.7308  0.3076 -0.8341
   57PVA    H63 9625   3.982   4.319   5.232  0.7194  3.4752  0.1988
   57PVA    O11 9626   4.177   4.227   5.210  0.2478 -0.8769  0.3211
   57PVA    H64 9627   4.255   4.240   5.267  1.5182 -0.1051 -1.4745
   57PVA    C33 9628   4.005   4.132   5.354 -0.1235  0.2750  0.0502
   57PVA    H65 9629   3.923   4.162   5.420 -1.3714 -0.7252 -0.9922
   57PVA    H66 9630   4.082   4.074   5.407  0.2505 -0.4275 -1.2145
   57PVA    C34 9631   3.950   4.035   5.246 -0.5074  0.4975  0.7178
   57PVA    H67 9632   3.900   4.093   5.168 -0.8883 -1.6313 -0.6928
   57PVA    H68 9633   4.032   3.988   5.191 -1.7093  0.5858 -1.2378
   57PVA    C35 9634   3.866   3.919   5.297  1.1979 -0.4072 -0.9673
   57PVA    H69 9635   3.813   3.961   5.383  5.0070  0.5358  1.1769
   57PVA    O12 9636   3.954   3.818   5.331  1.1565  0.5280  1.0995
   57PVA    H70 9637   3.974   3.782   5.243 -3.0636  1.8476 -0.6188
   57PVA    C36 9638   3.763   3.866   5.190 -0.6551 -0.4251  0.4532
   57PVA    H71 9639   3.711   3.958   5.161 -2.0660 -1.9237 -2.1595
   57PVA    H72 9640   3.799   3.844   5.089 -1.3587  3.7555 -0.8783
   57PVA    C37 9641   3.655   3.766   5.239 -0.1526  0.4711 -0.0357
   57PVA    H73 9642   3.691   3.664   5.220  3.6850  1.1317  2.5672
   57PVA    H74 9643   3.559   3.783   5.187 -1.1068 -4.8134 -0.5152
   57PVA    C38 9644   3.597   3.775   5.386 -0.8430 -0.0511  1.7369
   57PVA    H75 9645   3.665   3.832   5.449  2.4185 -0.4206 -1.1315
   57PVA    O13 9646   3.462   3.820   5.381 -1.4409 -0.1323 -0.0780
   57PVA    H76 9647   3.428   3.798   5.292 -5.4187  2.4455  0.5201
   57PVA    C39 9648   3.610   3.639   5.452 -0.5960  0.4235 -0.3418
   57PVA    H77 9649   3.562   3.573   5.379 -1.0137 -1.2022  1.3123
   57PVA    H78 9650   3.712   3.599   5.441 -1.6313 -1.9614 -2.1608
   57PVA    C40 9651   3.549   3.625   5.592 -0.3194 -0.0301 -0.1338
   57PVA    H79 9652   3.513   3.720   5.635  2.9259  0.1465  2.5232
   57PVA    H80 9653   3.456   3.568   5.583  0.6467 -1.3506 -2.5725
   57PVA    C41 9654   3.648   3.556   5.693  0.9322  0.3869  0.7838
   57PVA    H81 9655   3.737   3.617   5.711  3.4210 -2.4640 -0.8719
   57PVA    O14 9656   3.689   3.425   5.665 -0.1792  0.1859 -0.3467
   57PVA    H82 9657   3.616   3.364   5.683  1.2299 -2.0497 -1.8289
   57PVA    C42 9658   3.588   3.546   5.834 -0.0064  0.1688 -0.1746
   57PVA    H83 9659   3.513   3.466   5.829  1.0467 -0.9974  1.4578
   57PVA    H84 9660   3.530   3.639   5.837  0.5300  0.6288 -2.1549
   57PVA    C43 9661   3.700   3.513   5.938  0.5289 -1.0752 -0.1940
   57PVA    H85 9662   3.770   3.444   5.889 -0.5915 -1.1115 -1.8191
   57PVA    H86 9663   3.759   3.605   5.949 -0.8762 -0.0222 -1.1693
   57PVA    C44 9664   3.635   3.468   6.076 -0.5839  0.0772  0.5944
   57PVA    H87 9665   3.555   3.529   6.120  1.9515  1.2295  4.0324
   57PVA    O15 9666   3.590   3.328   6.051  0.1062 -1.4647 -0.9163
   57PVA    H88 9667   3.520   3.322   5.983 -2.6745 -2.4159  1.7927
   57PVA    C45 9668   3.736   3.479   6.193  0.3446 -0.1960 -0.5317
   57PVA    H89 9669   3.811   3.399   6.195  0.9414  0.3549  1.2443
   57PVA    H90 9670   3.791   3.571   6.169 -0.3359  1.4974  3.6274
   57PVA    C46 9671   3.679   3.492   6.334 -0.6048 -0.6157 -0.3872
   57PVA    H91 9672   3.591   3.556   6.315  0.6894  2.3430  2.5050
   57PVA    H92 9673   3.644   3.392   6.362  2.5250 -2.2564 -1.9164
   57PVA    C47 9674   3.770   3.547   6.450  0.5736 -1.0828 -0.0583
   57PVA    H93 9675   3.750   3.654   6.438 -0.2787 -1.2232  0.0547
   57PVA    O16 9676   3.708   3.500   6.574 -1.2581  0.5876  1.3377
   57PVA    H94 9677   3.762   3.516   6.654  5.7552 -3.2778 -1.6880
   57PVA    C48 9678   3.917   3.509   6.444 -0.1191 -0.3462 -0.3656
   57PVA    H95 9679   3.929   3.401   6.461  1.5350 -0.3339 -1.2717
   57PVA    H96 9680   3.960   3.532   6.346 -1.6657  4.6228 -0.1648
   57PVA    C49 9681   4.012   3.589   6.544 -0.0260 -0.2164  0.3267
   57PVA    H97 9682   3.971   3.592   6.646  2.0260 -2.3945  1.3138
   57PVA    H98 9683   3.999   3.690   6.502 -1.2064  0.3310  1.8737
   57PVA    C50 9684   4.166   3.569   6.561  0.5080 -0.1823 -0.7856
   57PVA    H99 9685   4.209   3.492   6.496 -3.8794 -1.9503 -1.9144
   57PVA    O17 9686   4.186   3.512   6.687 -0.3446 -0.0480 -0.4250
   57PVA   H100 9687   4.195   3.588   6.747  2.2524 -1.1359  0.7268
   57PVA    C51 9688   4.255   3.695   6.550  0.1518  1.4636  0.6304
   57PVA   H101 9689   4.363   3.680   6.550  0.5571  3.9321  1.5804
   57PVA   H102 9690   4.231   3.752   6.641 -0.0215 -0.6161  1.9388
   58PVA     C1 9691   1.565   5.770   1.551 -0.5748 -0.0903 -0.6716
   58PVA     H1 9692   1.577   5.662   1.541  3.8990 -0.2203  3.1003
   58PVA     H2 9693   1.479   5.783   1.484 -3.1080 -1.5576  2.0608
   58PVA     C2 9694   1.698   5.843   1.507  0.0197  0.4912  1.2455
   58PVA     H3 9695   1.774   5.835   1.585  0.7453 -1.2830  0.3978
   58PVA     O1 9696   1.661   5.972   1.464  0.6006 -0.6164  0.5634
   58PVA     H4 9697   1.601   6.010   1.531 -0.9448  2.0325 -2.0609
   58PVA     C3 9698   1.764   5.768   1.388  0.1367  0.2493  0.0486
   58PVA     H5 9699   1.705   5.796   1.300 -0.6520 -1.7032 -0.1085
   58PVA     H6 9700   1.750   5.660   1.405  4.0340 -0.3484  0.5042
   58PVA     C4 9701   1.910   5.778   1.370 -0.4719 -0.8214 -0.3689
   58PVA     H7 9702   1.934   5.875   1.324 -2.6989  0.1484  0.3842
   58PVA     H8 9703   1.964   5.783   1.466 -2.4726  3.2133  0.7502
   58PVA     C5 9704   1.970   5.674   1.273 -0.0396 -0.2191  1.0498
   58PVA     H9 9705   1.895   5.681   1.192 -2.3281  5.2092  3.1680
   58PVA     O2 9706   1.954   5.540   1.306 -0.0719 -0.9875 -1.0165
   58PVA    H10 9707   2.027   5.530   1.369 -2.3243  0.8705  2.2625
   58PVA     C6 9708   2.119   5.704   1.218  1.0408  0.4647  0.1641
   58PVA    H11 9709   2.186   5.669   1.298 -0.1746 -0.5903  0.7485
   58PVA    H12 9710   2.148   5.808   1.194  2.6637 -0.2875 -1.4068
   58PVA     C7 9711   2.164   5.633   1.093 -0.7772 -0.8193  0.3783
   58PVA    H13 9712   2.089   5.661   1.018  2.5554 -1.4557 -3.5151
   58PVA    H14 9713   2.166   5.523   1.100  3.6011 -0.9005  0.0263
   58PVA     C8 9714   2.305   5.671   1.045 -0.2572 -0.6593  0.1150
   58PVA    H15 9715   2.345   5.772   1.029  2.2009 -1.5971 -0.0694
   58PVA     O3 9716   2.389   5.643   1.165 -0.2543 -0.4319 -0.1068
   58PVA    H16 9717   2.471   5.599   1.137  0.4685  0.4449  0.5676
   58PVA     C9 9718   2.358   5.592   0.927  1.1998 -0.2873  0.4350
   58PVA    H17 9719   2.292   5.507   0.906  0.1042  1.3961 -4.3044
   58PVA    H18 9720   2.375   5.657   0.840 -1.4661 -0.4470 -0.2907
   58PVA    C10 9721   2.498   5.531   0.945  0.9150  1.4094  0.5885
   58PVA    H19 9722   2.587   5.593   0.963  1.3905  1.8898 -2.7540
   58PVA    H20 9723   2.474   5.466   1.030  1.2657 -0.3629 -0.6094
   58PVA    C11 9724   2.538   5.449   0.820  0.3231  0.2171  0.0577
   58PVA    H21 9725   2.450   5.424   0.759  0.1526  3.9679 -1.5496
   58PVA     O4 9726   2.601   5.546   0.735  0.1370  0.9279  0.6452
   58PVA    H22 9727   2.531   5.612   0.722 -1.6070 -0.5427  2.0053
   58PVA    C12 9728   2.633   5.334   0.840  0.2230  1.2260  0.1850
   58PVA    H23 9729   2.584   5.256   0.900 -0.7211  0.1123 -1.9388
   58PVA    H24 9730   2.713   5.381   0.897  0.8401  1.4440 -0.8457
   58PVA    C13 9731   2.692   5.273   0.718  0.1267 -0.1739  0.9275
   58PVA    H25 9732   2.628   5.294   0.631 -0.8829  0.4855  1.8086
   58PVA    H26 9733   2.784   5.330   0.701 -2.4447  3.9771 -0.4373
   58PVA    C14 9734   2.710   5.115   0.734  0.1294  0.3246  0.4554
   58PVA    H27 9735   2.770   5.097   0.823 -0.2868 -1.6526  0.3997
   58PVA     O5 9736   2.589   5.038   0.756  0.3916 -0.3643 -0.2258
   58PVA    H28 9737   2.584   4.965   0.693  2.8375 -0.2770 -0.6106
   58PVA    C15 9738   2.794   5.066   0.613 -0.0221 -0.3780 -0.0813
   58PVA    H29 9739   2.861   5.144   0.575  0.8380 -0.0638  1.9621
   58PVA    H30 9740   2.715   5.046   0.539 -1.8029  1.1368  1.3167
   58PVA    C16 9741   2.895   4.949   0.652 -0.7431 -0.8907 -0.0355
   58PVA    H31 9742   2.948   4.970   0.746 -0.9689 -3.9685  0.8868
   58PVA    H32 9743   2.827   4.877   0.699 -1.1601  0.3942  1.3976
   58PVA    C17 9744   3.006   4.900   0.550  0.9491 -0.2512 -0.2283
   58PVA    H33 9745   3.073   4.986   0.536 -0.1869  0.7625  0.3597
   58PVA     O6 9746   2.959   4.867   0.420  0.3109 -0.2356 -0.2720
   58PVA    H34 9747   2.884   4.815   0.453  1.0882 -1.1383  0.1431
   58PVA    C18 9748   3.089   4.791   0.624  0.6359 -0.4638  0.1564
   58PVA    H35 9749   3.119   4.818   0.726 -1.0397 -2.9246  1.4010
   58PVA    H36 9750   3.027   4.702   0.639 -0.3258  0.4690  1.9858
   58PVA    C19 9751   3.219   4.765   0.542  0.0368 -0.0112  0.8031
   58PVA    H37 9752   3.273   4.856   0.514  1.8320 -1.2141  0.1797
   58PVA    H38 9753   3.196   4.725   0.442 -4.6811 -0.4674  1.8318
   58PVA    C20 9754   3.307   4.655   0.585 -0.0839  0.1752 -0.5180
   58PVA    H39 9755   3.260   4.556   0.593 -0.9072  0.6700  1.2252
   58PVA     O7 9756   3.360   4.694   0.715  0.8598 -0.2854 -0.3274
   58PVA    H40 9757   3.340   4.789   0.720 -0.2280 -0.4695 -0.8751
   58PVA    C21 9758   3.443   4.636   0.506 -0.7431 -0.5202 -0.5207
   58PVA    H41 9759   3.502   4.727   0.526  2.7588 -2.7315  0.0640
   58PVA    H42 9760   3.495   4.561   0.566 -4.3054 -1.0552  2.1829
   58PVA    C22 9761   3.435   4.616   0.350 -0.3213  0.3473  0.3406
   58PVA    H43 9762   3.379   4.524   0.334 -1.3255  1.1616 -1.0361
   58PVA    H44 9763   3.375   4.698   0.308 -0.0488 -0.1814 -1.1376
   58PVA    C23 9764   3.565   4.599   0.267  0.2191  0.0557 -1.2030
   58PVA    H45 9765   3.624   4.528   0.326 -0.7050  0.0733 -0.2439
   58PVA     O8 9766   3.622   4.728   0.272 -0.0994 -1.1045  0.6852
   58PVA    H46 9767   3.628   4.777   0.356  0.1733 -1.0337  0.6270
   58PVA    C24 9768   3.537   4.545   0.119 -0.0931 -0.0819 -0.5144
   58PVA    H47 9769   3.632   4.520   0.070  0.8932  2.2725  0.0650
   58PVA    H48 9770   3.477   4.454   0.121  0.1786 -0.2843  1.5971
   58PVA    C25 9771   3.458   4.645   0.035  0.4264 -0.1306  0.0705
   58PVA    H49 9772   3.500   4.743   0.060  1.4179 -1.0598  2.3497
   58PVA    H50 9773   3.353   4.645   0.067  0.1173  0.5967 -0.8981
   58PVA    C26 9774   3.474   4.619   7.979  0.2847 -0.7464  0.1173
   58PVA    H51 9775   3.581   4.616   7.954 -0.1092  1.2472 -2.2695
   58PVA     O9 9776   3.399   4.502   7.934 -0.0532 -0.5089 -0.6848
   58PVA    H52 9777   3.459   4.428   7.958 -1.5894 -0.5312  4.2290
   58PVA    C27 9778   3.427   4.734   7.898 -0.2119 -0.5443  0.4074
   58PVA    H53 9779   3.472   4.825   7.938  2.3735 -0.3006 -2.6254
   58PVA    H54 9780   3.318   4.735   7.901 -0.2401 -0.9990 -0.2793
   58PVA    C28 9781   3.483   4.736   7.756 -0.1374 -0.3728  0.5441
   58PVA    H55 9782   3.592   4.746   7.762  0.0906 -2.2746  0.3625
   58PVA    H56 9783   3.478   4.640   7.703  3.3950 -0.2323 -0.3191
   58PVA    C29 9784   3.429   4.841   7.659 -0.8855 -0.8459 -0.5434
   58PVA    H57 9785   3.342   4.806   7.603  0.8681 -1.0868 -3.3022
   58PVA    O10 9786   3.408   4.965   7.731  0.1885  0.5078 -0.0007
   58PVA    H58 9787   3.443   5.028   7.666 -0.4910  0.0927 -0.7839
   58PVA    C30 9788   3.527   4.867   7.538  0.1495  0.1384 -0.1966
   58PVA    H59 9789   3.628   4.865   7.580 -0.1039 -0.6682  0.3815
   58PVA    H60 9790   3.516   4.783   7.468 -1.2514 -0.0759  0.2521
   58PVA    C31 9791   3.496   5.002   7.463 -0.8202 -0.1773 -0.1156
   58PVA    H61 9792   3.538   5.087   7.519 -0.9691  1.2246 -2.0337
   58PVA    H62 9793   3.387   5.009   7.470 -0.6896  2.4413  0.3459
   58PVA    C32 9794   3.547   4.998   7.315 -0.0228 -0.3845 -1.3628
   58PVA    H63 9795   3.589   4.908   7.268 -1.1454 -1.2681 -0.7210
   58PVA    O11 9796   3.446   5.054   7.223 -0.0587 -0.0966 -0.8999
   58PVA    H64 9797   3.428   4.985   7.157 -0.0713 -1.8643  0.8457
   58PVA    C33 9798   3.670   5.091   7.316  0.8598  0.2403 -1.6228
   58PVA    H65 9799   3.743   5.044   7.382 -1.2471 -0.1582  0.5906
   58PVA    H66 9800   3.636   5.189   7.352 -6.8086 -2.5123  0.6693
   58PVA    C34 9801   3.742   5.091   7.177 -0.3666  0.7740 -0.8872
   58PVA    H67 9802   3.726   4.993   7.130 -4.9695 -1.3967  4.1673
   58PVA    H68 9803   3.686   5.165   7.118 -3.0479  0.0295  0.5656
   58PVA    C35 9804   3.884   5.155   7.189 -0.4082  1.1547 -0.0817
   58PVA    H69 9805   3.870   5.248   7.245 -3.5267  2.8061 -3.1378
   58PVA    O12 9806   3.977   5.061   7.255  0.2302  0.1979 -0.1217
   58PVA    H70 9807   4.009   5.021   7.173 -3.9553  0.7007 -2.2825
   58PVA    C36 9808   3.940   5.188   7.049  0.2915 -0.4364  0.7985
   58PVA    H71 9809   3.918   5.103   6.984 -0.2666  0.9104 -0.8603
   58PVA    H72 9810   3.879   5.270   7.009 -2.4271 -1.1057  3.1799
   58PVA    C37 9811   4.089   5.231   7.036 -0.0639  1.1733 -0.3860
   58PVA    H73 9812   4.143   5.161   7.101 -1.1053  2.3376  1.8655
   58PVA    H74 9813   4.102   5.333   7.075 -4.2659  2.4758 -1.8128
   58PVA    C38 9814   4.126   5.239   6.885 -0.0007  0.8312 -1.0812
   58PVA    H75 9815   4.057   5.166   6.841  1.3188 -1.5838  0.6457
   58PVA    O13 9816   4.107   5.379   6.845  1.0189 -0.5715 -1.6167
   58PVA    H76 9817   4.187   5.405   6.796 -0.8489 -1.5074 -5.5529
   58PVA    C39 9818   4.263   5.198   6.845 -0.6719  1.4564 -0.0258
   58PVA    H77 9819   4.276   5.097   6.885 -1.2290  2.0220  1.6591
   58PVA    H78 9820   4.340   5.250   6.903  2.1168 -1.1342 -1.1631
   58PVA    C40 9821   4.298   5.181   6.689 -1.0700 -0.8412  0.1762
   58PVA    H79 9822   4.229   5.109   6.642 -0.3555 -1.8730  0.6771
   58PVA    H80 9823   4.287   5.262   6.616 -0.3960  0.0330  1.0117
   58PVA    C41 9824   4.434   5.114   6.661  0.2457  0.0798  0.1575
   58PVA    H81 9825   4.445   5.022   6.720  3.6021 -1.0299 -1.9399
   58PVA    O14 9826   4.547   5.190   6.691  0.1180 -0.5294  0.6225
   58PVA    H82 9827   4.550   5.215   6.785 -1.6014 -0.4480  0.6885
   58PVA    C42 9828   4.460   5.046   6.520 -0.7657 -0.4815 -0.1184
   58PVA    H83 9829   4.403   5.086   6.435  0.6196 -1.5511 -1.6110
   58PVA    H84 9830   4.564   5.067   6.492  0.7323 -2.1538  3.5041
   58PVA    C43 9831   4.466   4.896   6.524  0.7125  0.8227 -0.0970
   58PVA    H85 9832   4.453   4.863   6.420 -2.9325 -2.2724  1.1262
   58PVA    H86 9833   4.379   4.861   6.580 -0.2522  0.2595 -1.8617
   58PVA    C44 9834   4.603   4.831   6.574 -0.3598  0.6299 -1.1182
   58PVA    H87 9835   4.674   4.915   6.574  0.3939  0.1600  2.6023
   58PVA    O15 9836   4.597   4.771   6.704 -0.0593 -0.8793  0.5955
   58PVA    H88 9837   4.595   4.846   6.765 -0.5675 -1.8481  1.8278
   58PVA    C45 9838   4.657   4.724   6.483  0.3374 -0.6383  0.4767
   58PVA    H89 9839   4.755   4.685   6.515 -0.9904 -1.9072  3.3780
   58PVA    H90 9840   4.654   4.774   6.385  2.8844  1.6604  1.4389
   58PVA    C46 9841   4.564   4.606   6.453  0.0090  0.2542  0.4970
   58PVA    H91 9842   4.537   4.527   6.523 -0.7340 -1.9633 -2.1098
   58PVA    H92 9843   4.468   4.645   6.417 -2.0721 -3.8410  1.0346
   58PVA    C47 9844   4.616   4.514   6.345  0.2781  1.4508 -1.1051
   58PVA    H93 9845   4.714   4.471   6.369  0.2664  1.0471 -1.7784
   58PVA    O16 9846   4.645   4.582   6.228  0.2475 -0.4892  0.5276
   58PVA    H94 9847   4.564   4.574   6.174  0.0623 -2.2099  1.0037
   58PVA    C48 9848   4.525   4.391   6.309 -0.0615 -0.5438 -1.1603
   58PVA    H95 9849   4.458   4.364   6.392 -0.2347  2.2006 -0.3049
   58PVA    H96 9850   4.443   4.421   6.242 -1.3810 -2.4810 -0.5000
   58PVA    C49 9851   4.605   4.273   6.252  0.6616 -0.5214  1.3530
   58PVA    H97 9852   4.672   4.239   6.332 -1.0595 -1.5188  2.4251
   58PVA    H98 9853   4.658   4.323   6.169  1.3521  1.4123  2.8874
   58PVA    C50 9854   4.518   4.152   6.206  0.3370 -0.4944  0.1408
   58PVA    H99 9855   4.436   4.182   6.140 -1.7049 -2.1092  1.7864
   58PVA    O17 9856   4.616   4.078   6.144  0.2409 -0.5366  1.0606
   58PVA   H100 9857   4.568   4.023   6.080 -1.0987  1.0321  0.6602
   58PVA    C51 9858   4.472   4.075   6.326  0.1602  1.1282  0.3939
   58PVA   H101 9859   4.556   4.033   6.382 -0.5123  1.0985  1.3981
   58PVA   H102 9860   4.433   4.147   6.399  1.2388  2.0885  0.0527
   59PVA     C1 9861   1.137   5.699   1.773  0.0580 -0.1142 -0.4025
   59PVA     H1 9862   1.108   5.755   1.683 -0.4261  2.3533  1.1897
   59PVA     H2 9863   1.137   5.599   1.728 -0.2617 -0.1419 -0.3408
   59PVA     C2 9864   1.024   5.724   1.878  0.3675  0.8559 -0.9786
   59PVA     H3 9865   1.044   5.817   1.932  3.4549 -1.2742  1.9017
   59PVA     O1 9866   1.009   5.629   1.974  1.4042  0.4974 -0.4588
   59PVA     H4 9867   0.922   5.636   2.016  1.6927  1.0732  0.0538
   59PVA     C3 9868   0.899   5.742   1.797  0.0279 -0.3405 -0.0889
   59PVA     H5 9869   0.863   5.645   1.759 -0.6904  0.3943 -1.3764
   59PVA     H6 9870   0.922   5.800   1.707  0.2075 -2.0366 -1.1796
   59PVA     C4 9871   0.788   5.825   1.861  0.1046 -0.1892 -0.4286
   59PVA     H7 9872   0.741   5.753   1.930  0.5889 -0.9281 -0.8610
   59PVA     H8 9873   0.831   5.894   1.935 -1.6468  0.5317 -0.0205
   59PVA     C5 9874   0.702   5.921   1.765  0.8025 -0.0874  0.5428
   59PVA     H9 9875   0.765   6.010   1.764 -0.5029  0.8724 -0.4618
   59PVA     O2 9876   0.689   5.858   1.639  0.0238 -0.1676  0.8847
   59PVA    H10 9877   0.645   5.922   1.580 -0.2022 -1.5907 -0.5688
   59PVA     C6 9878   0.562   5.977   1.803 -0.0486 -0.0217 -0.5413
   59PVA    H11 9879   0.581   6.030   1.898  3.0713 -0.3297 -0.8830
   59PVA    H12 9880   0.523   6.058   1.740 -1.2531 -0.1597  0.0035
   59PVA     C7 9881   0.454   5.873   1.858 -0.5056 -0.0889 -0.0438
   59PVA    H13 9882   0.488   5.849   1.959  0.9702 -4.1554 -1.2772
   59PVA    H14 9883   0.441   5.786   1.791  1.0325  0.8142 -1.5913
   59PVA     C8 9884   0.310   5.933   1.845 -0.4718 -0.7288 -0.9064
   59PVA    H15 9885   0.293   5.974   1.744  3.6647  4.6887  0.1438
   59PVA     O3 9886   0.302   6.033   1.940  0.2473 -0.4145 -1.1687
   59PVA    H16 9887   0.242   6.102   1.907  0.4314  0.4311  0.1647
   59PVA     C9 9888   0.206   5.827   1.883  0.2987  0.2544  1.1040
   59PVA    H17 9889   0.213   5.792   1.987 -1.2815 -2.2668  0.4535
   59PVA    H18 9890   0.109   5.879   1.879  0.5205  0.5917 -0.3424
   59PVA    C10 9891   0.197   5.699   1.781 -0.3028 -0.1593 -0.6746
   59PVA    H19 9892   0.215   5.733   1.678 -1.5240  1.9427 -0.2369
   59PVA    H20 9893   0.286   5.638   1.801  0.5440  1.1788 -0.2195
   59PVA    C11 9894   0.068   5.612   1.794 -0.2656  0.1980 -0.3082
   59PVA    H21 9895   0.111   5.546   1.870 -1.9824  0.2805  0.7895
   59PVA     O4 9896   7.715   5.671   1.840 -0.3368  0.1033 -0.4140
   59PVA    H22 9897   7.738   5.692   1.932  2.7716 -4.3656  0.1635
   59PVA    C12 9898   0.036   5.528   1.677  0.7498  0.7520  0.2556
   59PVA    H23 9899   0.117   5.459   1.651  1.1320  1.8869 -1.8729
   59PVA    H24 9900   7.732   5.459   1.726 -2.1874  1.8935 -1.9597
   59PVA    C13 9901   7.727   5.570   1.546  0.3189 -0.3184  0.4980
   59PVA    H25 9902   0.014   5.647   1.488  0.3130 -0.0842  0.7948
   59PVA    H26 9903   7.635   5.625   1.570 -0.4155 -1.7855  1.2104
   59PVA    C14 9904   7.677   5.468   1.439  0.8202 -0.5154 -0.1819
   59PVA    H27 9905   7.740   5.479   1.349  3.5115 -0.5785  1.5959
   59PVA     O5 9906   7.686   5.332   1.483  0.5933 -0.5211  0.4909
   59PVA    H28 9907   7.711   5.291   1.398  1.4814 -0.7719  0.8719
   59PVA    C15 9908   7.528   5.504   1.399 -0.0322  0.8014  0.5049
   59PVA    H29 9909   7.531   5.607   1.364  0.4101  0.2867 -1.0585
   59PVA    H30 9910   7.452   5.494   1.477 -1.2457  0.0378 -0.7110
   59PVA    C16 9911   7.493   5.418   1.275 -0.3047  1.2526 -0.7963
   59PVA    H31 9912   7.583   5.377   1.228 -0.7270 -1.4921  0.5985
   59PVA    H32 9913   7.462   5.316   1.300  0.6262  0.2004 -3.5722
   59PVA    C17 9914   7.389   5.471   1.164 -0.0826  0.4739  0.1870
   59PVA    H33 9915   7.435   5.557   1.114 -1.4788  0.9728 -0.2706
   59PVA     O6 9916   7.350   5.372   1.066  0.0457 -0.4374 -0.8216
   59PVA    H34 9917   7.347   5.410   0.977  2.2598 -0.7172 -1.0706
   59PVA    C18 9918   7.261   5.533   1.226 -1.4460 -0.7868 -1.1908
   59PVA    H35 9919   7.306   5.608   1.292  1.1737 -1.9054 -1.5939
   59PVA    H36 9920   7.190   5.477   1.288  0.5531 -1.2025  0.8497
   59PVA    C19 9921   7.179   5.592   1.120 -0.2990  0.9597  0.4814
   59PVA    H37 9922   7.155   5.503   1.060  0.2904  1.4453 -0.5058
   59PVA    H38 9923   7.222   5.667   1.052 -1.0165  0.5283 -0.4695
   59PVA    C20 9924   7.047   5.662   1.161  1.5576  0.6070  1.2518
   59PVA    H39 9925   7.015   5.585   1.232  2.2766 -1.3472 -0.3991
   59PVA     O7 9926   7.065   5.785   1.232  0.5476  1.1380 -0.7584
   59PVA    H40 9927   7.124   5.829   1.169  1.5619 -1.7257 -1.9741
   59PVA    C21 9928   6.938   5.667   1.045 -0.1117  0.2447 -0.1962
   59PVA    H41 9929   6.915   5.562   1.027  2.6175 -1.0655  2.7920
   59PVA    H42 9930   6.998   5.706   0.962  2.3191  0.7059  1.6600
   59PVA    C22 9931   6.807   5.745   1.071  0.1884  0.0212  0.4279
   59PVA    H43 9932   6.821   5.854   1.068 -0.0738  0.0798  1.2404
   59PVA    H44 9933   6.743   5.732   0.983  2.2367  2.7841 -1.6682
   59PVA    C23 9934   6.739   5.705   1.200 -0.4642 -0.1377 -0.1743
   59PVA    H45 9935   6.765   5.600   1.220 -0.5217 -0.3048 -0.9481
   59PVA     O8 9936   6.800   5.789   1.293  0.1329 -0.3516  0.5026
   59PVA    H46 9937   6.896   5.803   1.288  0.3401 -1.9277 -3.4147
   59PVA    C24 9938   6.581   5.707   1.214 -1.5170 -0.2551  0.8742
   59PVA    H47 9939   6.544   5.781   1.143  0.5987  0.8839  0.8794
   59PVA    H48 9940   6.552   5.614   1.164  3.6310 -1.2414 -0.8765
   59PVA    C25 9941   6.536   5.725   1.352  0.3277  0.3323 -1.0347
   59PVA    H49 9942   6.618   5.675   1.406 -1.9460 -0.2683  2.1645
   59PVA    H50 9943   6.541   5.830   1.383 -0.9301  0.4963 -1.3444
   59PVA    C26 9944   6.409   5.657   1.421  1.1386  0.4181 -0.2508
   59PVA    H51 9945   6.413   5.549   1.399  0.7963  0.7746 -2.3328
   59PVA     O9 9946   6.286   5.697   1.356 -1.3854 -0.0946 -0.3570
   59PVA    H52 9947   6.316   5.724   1.268 -1.8246 -0.2145 -0.5454
   59PVA    C27 9948   6.408   5.691   1.580 -0.1630 -0.0392  0.3085
   59PVA    H53 9949   6.409   5.798   1.559 -3.7973 -0.7262 -5.5530
   59PVA    H54 9950   6.501   5.659   1.629  0.9121 -3.2454 -3.3221
   59PVA    C28 9951   6.282   5.653   1.669  0.9265  0.3007  1.2304
   59PVA    H55 9952   6.270   5.544   1.668 -0.6643  0.4076 -1.3735
   59PVA    H56 9953   6.307   5.683   1.771  2.7369  0.8703  0.6672
   59PVA    C29 9954   6.136   5.713   1.636  0.5515  1.1718  1.0497
   59PVA    H57 9955   6.141   5.822   1.649 -1.8398  1.0362  4.6175
   59PVA    O10 9956   6.080   5.667   1.510 -0.4167 -0.3503 -0.0512
   59PVA    H58 9957   6.158   5.650   1.453 -1.1233 -2.0606 -0.5748
   59PVA    C30 9958   6.035   5.680   1.743 -0.4508  0.0406  1.0670
   59PVA    H59 9959   5.980   5.592   1.707 -1.3286  1.8469 -2.4854
   59PVA    H60 9960   6.080   5.667   1.842  0.0404  0.2668  0.8774
   59PVA    C31 9961   5.925   5.803   1.757  0.9086 -0.1398 -0.1106
   59PVA    H61 9962   5.832   5.751   1.783  2.5167 -2.0814  2.1929
   59PVA    H62 9963   5.909   5.852   1.660  2.5784  2.2551  0.7343
   59PVA    C32 9964   5.954   5.911   1.869 -1.2616  0.2989 -0.3968
   59PVA    H63 9965   5.931   5.860   1.964 -2.8051 -1.1519 -1.4883
   59PVA    O11 9966   6.081   5.959   1.854 -0.3450 -0.5132 -0.6340
   59PVA    H64 9967   6.142   5.923   1.921  1.0258  1.1915 -0.9125
   59PVA    C33 9968   5.849   6.030   1.854 -0.3648 -0.6869  0.0452
   59PVA    H65 9969   5.747   5.990   1.865 -1.2382  1.4624  0.1465
   59PVA    H66 9970   5.853   6.074   1.754  1.3882  5.2000  2.3111
   59PVA    C34 9971   5.879   6.148   1.949  0.2462 -0.3413  0.2048
   59PVA    H67 9972   5.943   6.109   2.030  4.5431 -0.2468 -2.7641
   59PVA    H68 9973   5.961   6.198   1.895 -0.0989 -1.0022 -0.9818
   59PVA    C35 9974   5.764   6.253   1.963  1.0421  0.0057  0.1919
   59PVA    H69 9975   5.698   6.212   1.885  4.2467 -1.1405 -2.1048
   59PVA    O12 9976   5.811   6.385   1.933 -0.9453  0.4393  0.3055
   59PVA    H70 9977   5.748   6.436   1.878  2.0068  2.3873 -1.6310
   59PVA    C36 9978   5.719   6.235   2.112 -0.4625 -1.2625  0.1395
   59PVA    H71 9979   5.686   6.134   2.138  1.2339 -2.2837 -1.4054
   59PVA    H72 9980   5.802   6.258   2.179 -1.2891 -4.8194  2.6920
   59PVA    C37 9981   5.603   6.325   2.175  0.2966 -0.1133  0.6276
   59PVA    H73 9982   5.625   6.431   2.155 -1.9495  0.2381 -0.3320
   59PVA    H74 9983   5.509   6.309   2.120 -1.0930 -2.5519  3.4646
   59PVA    C38 9984   5.556   6.303   2.323  0.3123 -1.3446  0.3470
   59PVA    H75 9985   5.494   6.385   2.361 -0.2905 -2.2135  1.3119
   59PVA    O13 9986   5.450   6.204   2.338 -0.1544  0.0354  0.3551
   59PVA    H76 9987   5.423   6.212   2.431 -0.7913  2.4094  0.0204
   59PVA    C39 9988   5.656   6.271   2.445 -0.3105  0.4793  0.5043
   59PVA    H77 9989   5.730   6.351   2.446  1.7884 -1.3449 -0.2117
   59PVA    H78 9990   5.711   6.176   2.435  0.5292  1.1713 -2.6767
   59PVA    C40 9991   5.587   6.268   2.582 -0.2218 -0.7159 -0.4330
   59PVA    H79 9992   5.495   6.327   2.586  1.7557  2.6873 -1.2262
   59PVA    H80 9993   5.555   6.164   2.594 -1.8740 -0.5352 -2.5987
   59PVA    C41 9994   5.673   6.331   2.705 -0.6247 -0.3965  0.2997
   59PVA    H81 9995   5.676   6.440   2.698  0.7538 -0.2844  1.9815
   59PVA    O14 9996   5.809   6.282   2.699  0.0156  0.9030 -0.0180
   59PVA    H82 9997   5.813   6.201   2.647  2.7176  3.1044 -3.7149
   59PVA    C42 9998   5.604   6.288   2.841  0.1980  0.5967  0.9277
   59PVA    H83 9999   5.495   6.280   2.833  0.2178  1.8246 -1.3591
   59PVA    H8410000   5.638   6.185   2.860 -1.4203 -0.2461 -0.4849
   59PVA    C4310001   5.636   6.377   2.965 -0.4086 -0.6680  0.0170
   59PVA    H8510002   5.739   6.384   3.002 -0.7624 -1.3681  1.1905
   59PVA    H8610003   5.614   6.478   2.928  2.2346  0.5604  1.4785
   59PVA    C4410004   5.546   6.338   3.091  0.1479  0.8759  1.1954
   59PVA    H8710005   5.561   6.229   3.087  3.5822  1.2918 -1.7604
   59PVA    O1510006   5.410   6.364   3.065 -0.1018  0.1975  0.4735
   59PVA    H8810007   5.413   6.450   3.111  2.3827  0.9406 -0.8740
   59PVA    C4510008   5.595   6.405   3.221  0.1013  1.0558  0.4120
   59PVA    H8910009   5.553   6.506   3.215  0.4610  1.1307 -1.9316
   59PVA    H9010010   5.700   6.416   3.191 -0.8162  6.0354 -1.8641
   59PVA    C4610011   5.557   6.338   3.352 -0.4330  0.5982 -0.0647
   59PVA    H9110012   5.454   6.365   3.381 -0.2872 -0.4821  1.5700
   59PVA    H9210013   5.537   6.235   3.320 -2.7176 -0.2792  3.5874
   59PVA    C4710014   5.652   6.342   3.479  0.2533 -0.4005 -0.8710
   59PVA    H9310015   5.573   6.374   3.549 -0.1838  0.2843 -1.6543
   59PVA    O1610016   5.753   6.441   3.456 -0.5725  0.7265 -0.2450
   59PVA    H9410017   5.720   6.511   3.397  2.0069  3.1751  0.9876
   59PVA    C4810018   5.691   6.200   3.539  0.5466 -1.1762  0.7733
   59PVA    H9510019   5.615   6.136   3.586 -0.3121  0.4495  1.6845
   59PVA    H9610020   5.751   6.154   3.459 -1.3317 -2.9379  0.3035
   59PVA    C4910021   5.788   6.225   3.650 -0.0289 -0.6655  0.8353
   59PVA    H9710022   5.869   6.290   3.615  1.0588 -1.6335  1.4753
   59PVA    H9810023   5.751   6.288   3.732  0.3650  0.0526  0.4670
   59PVA    C5010024   5.870   6.111   3.718  0.4018 -0.4966  0.3322
   59PVA    H9910025   5.811   6.030   3.764  0.7953 -1.0722 -0.1619
   59PVA    O1710026   5.961   6.055   3.626  0.0731 -0.6873 -0.1683
   59PVA   H10010027   5.921   5.979   3.579 -0.5866  0.5726 -1.7305
   59PVA    C5110028   5.974   6.156   3.827 -0.2279  1.1220 -0.5959
   59PVA   H10110029   6.050   6.078   3.839  2.7905  3.8800 -0.4120
   59PVA   H10210030   6.022   6.251   3.802 -3.0017  2.6363 -0.6017
   60PVA     C110031   4.282   3.290   5.709 -0.1446  0.2427 -0.6904
   60PVA     H110032   4.226   3.268   5.617 -0.8555  0.7062 -0.3786
   60PVA     H210033   4.338   3.383   5.691 -0.2955  0.1797 -1.5456
   60PVA     C210034   4.396   3.185   5.696 -0.1044 -0.9821 -0.0413
   60PVA     H310035   4.354   3.087   5.671 -3.4451 -0.4954  2.8839
   60PVA     O110036   4.463   3.160   5.823 -0.7097 -0.0263 -0.2264
   60PVA     H410037   4.468   3.253   5.850 -1.8579 -0.7412  2.8395
   60PVA     C310038   4.496   3.230   5.575  0.8385  0.0959  0.3851
   60PVA     H510039   4.443   3.261   5.484  0.7471 -1.2438 -0.0485
   60PVA     H610040   4.568   3.306   5.608  2.6435 -1.4629  0.2014
   60PVA     C410041   4.592   3.101   5.541 -0.2735 -0.6338 -0.4830
   60PVA     H710042   4.650   3.097   5.635 -4.3616 -0.0674  2.3100
   60PVA     H810043   4.538   3.006   5.540 -1.4293 -0.0565  1.2160
   60PVA     C510044   4.681   3.106   5.407 -0.1849  0.0557 -0.0871
   60PVA     H910045   4.621   3.088   5.317  0.3160  1.4762 -0.7222
   60PVA     O210046   4.731   3.237   5.389 -0.5990 -0.3599  0.3043
   60PVA    H1010047   4.804   3.241   5.453 -1.6338  3.4303  1.4675
   60PVA     C610048   4.823   3.019   5.429 -0.2849 -1.2105 -0.1459
   60PVA    H1110049   4.871   3.070   5.514 -1.3708  1.6979 -1.1441
   60PVA    H1210050   4.791   2.918   5.454 -2.2397  0.0232  2.9089
   60PVA     C710051   4.921   3.042   5.302  0.4713 -0.5015 -0.5923
   60PVA    H1310052   4.951   3.147   5.306 -1.0292 -0.0651  2.6165
   60PVA    H1410053   4.878   3.041   5.201 -1.1698  3.7515 -0.1533
   60PVA     C810054   5.041   2.938   5.289  0.6357  1.0614  0.4423
   60PVA    H1510055   5.065   2.924   5.395 -4.0240 -0.8816  1.5315
   60PVA     O310056   4.990   2.804   5.252  0.5149 -0.0427 -0.2313
   60PVA    H1610057   5.072   2.758   5.225  2.7734  3.4704 -0.0603
   60PVA     C910058   5.149   2.979   5.191  0.2539  0.6462  0.7070
   60PVA    H1710059   5.178   3.085   5.183  2.7175  0.0834  1.3940
   60PVA    H1810060   5.102   2.984   5.092  0.1062  4.4236  0.7995
   60PVA    C1010061   5.265   2.876   5.156  0.1052  0.4027 -0.3022
   60PVA    H1910062   5.222   2.779   5.129  1.0172 -0.5962  1.6252
   60PVA    H2010063   5.309   2.841   5.250 -1.1434 -2.5752 -0.7029
   60PVA    C1110064   5.372   2.916   5.052  0.9755 -0.7211  0.3804
   60PVA    H2110065   5.384   3.025   5.044  3.5984 -1.0379 -1.1712
   60PVA     O410066   5.319   2.874   4.935  1.2300  1.2947 -0.1258
   60PVA    H2210067   5.381   2.898   4.864  3.1489  0.5981  1.2173
   60PVA    C1210068   5.507   2.842   5.065 -0.9883  0.7305  0.2082
   60PVA    H2310069   5.566   2.888   5.146  0.9012 -4.1074  1.9081
   60PVA    H2410070   5.489   2.742   5.106 -0.0247 -0.2165 -1.5865
   60PVA    C1310071   5.596   2.834   4.930  0.9145 -0.7550 -0.6415
   60PVA    H2510072   5.640   2.934   4.920  1.3500 -0.7961  0.7209
   60PVA    H2610073   5.547   2.811   4.834  1.1394  3.2859 -1.9187
   60PVA    C1410074   5.724   2.744   4.959  0.6749  0.7103 -0.3386
   60PVA    H2710075   5.793   2.778   4.880 -4.2184  1.1806 -5.0155
   60PVA     O510076   5.781   2.774   5.088  0.6036 -0.1244  0.2050
   60PVA    H2810077   5.742   2.719   5.157  3.6521  0.8630  2.9866
   60PVA    C1510078   5.704   2.592   4.950 -1.2578 -0.0779  0.0630
   60PVA    H2910079   5.642   2.565   4.863  0.4181  1.0369 -1.5512
   60PVA    H3010080   5.652   2.558   5.040  1.1690 -2.9266  0.5297
   60PVA    C1610081   5.834   2.501   4.952 -0.3586  0.2578 -0.3750
   60PVA    H3110082   5.876   2.506   5.053  0.2850 -1.4613 -0.5140
   60PVA    H3210083   5.891   2.522   4.861 -1.4244 -0.6616 -1.3010
   60PVA    C1710084   5.771   2.361   4.922 -0.5736  0.6581 -0.0821
   60PVA    H3310085   5.680   2.354   4.984 -1.3271 -1.3898 -1.3181
   60PVA     O610086   5.750   2.374   4.777  0.0384 -0.4820  0.4247
   60PVA    H3410087   5.762   2.462   4.736 -1.4614 -1.0989 -1.4955
   60PVA    C1810088   5.862   2.237   4.959 -0.2502 -0.9332  0.0447
   60PVA    H3510089   5.927   2.263   5.043 -0.9844  1.0577  0.0581
   60PVA    H3610090   5.802   2.149   4.984  0.3035 -1.1969  0.4735
   60PVA    C1910091   5.959   2.214   4.835 -0.0695  0.4251  0.1599
   60PVA    H3710092   6.022   2.302   4.817  0.0984 -0.0044 -1.5216
   60PVA    H3810093   5.889   2.188   4.755 -1.1794  2.4910  0.3778
   60PVA    C2010094   6.066   2.101   4.846 -0.2153 -0.3784 -1.0326
   60PVA    H3910095   6.020   2.040   4.925  0.0487  1.6953  0.8388
   60PVA     O710096   6.191   2.152   4.898  0.3807 -0.2182 -0.1293
   60PVA    H4010097   6.245   2.075   4.924  1.3616  0.1824 -0.8876
   60PVA    C2110098   6.084   1.998   4.729 -0.3539  0.3179  1.0291
   60PVA    H4110099   6.176   2.021   4.674 -1.1051 -0.4021 -0.5874
   60PVA    H4210100   6.018   2.013   4.643  0.7948  0.6089  0.1579
   60PVA    C2210101   6.099   1.857   4.792 -0.0734  0.0317  1.0731
   60PVA    H4310102   6.170   1.855   4.876  2.1457 -0.0584 -0.7138
   60PVA    H4410103   6.011   1.832   4.852 -0.9631  1.0071  0.1955
   60PVA    C2310104   6.118   1.739   4.704  0.3929 -0.9237  0.1075
   60PVA    H4510105   6.048   1.752   4.621  1.0307  3.4846  0.0182
   60PVA     O810106   6.250   1.741   4.659  0.3967 -0.6671  0.0459
   60PVA    H4610107   6.253   1.657   4.610 -2.7155  0.5302 -2.5455
   60PVA    C2410108   6.086   1.606   4.772 -0.2871 -0.0168  0.1112
   60PVA    H4710109   6.138   1.606   4.869 -1.6483 -0.4610  0.8755
   60PVA    H4810110   5.978   1.622   4.781 -0.0254  1.2813  1.4829
   60PVA    C2510111   6.112   1.470   4.692  0.7667 -0.6732 -0.2052
   60PVA    H4910112   6.220   1.454   4.695  1.0541  1.1642  1.6755
   60PVA    H5010113   6.093   1.487   4.586  0.8896  0.6154 -0.0348
   60PVA    C2610114   6.030   1.343   4.738 -0.0339  0.2937  0.6641
   60PVA    H5110115   5.925   1.376   4.736 -0.1949 -0.0884  1.9140
   60PVA     O910116   6.055   1.293   4.868 -0.9316  0.0683 -0.1081
   60PVA    H5210117   6.025   1.368   4.923  0.7482  0.9816 -0.3698
   60PVA    C2710118   6.031   1.232   4.628 -0.1330 -1.1654  0.0974
   60PVA    H5310119   6.133   1.218   4.590 -0.1054  2.1425 -1.4143
   60PVA    H5410120   5.971   1.266   4.542 -1.5392 -2.1395  0.6646
   60PVA    C2810121   5.991   1.097   4.668  0.1509 -0.5377  0.6255
   60PVA    H5510122   5.906   1.089   4.738  1.0324  1.3931  2.0002
   60PVA    H5610123   6.068   1.061   4.737  0.7847 -0.9104 -0.2540
   60PVA    C2910124   5.989   1.006   4.536  0.6221 -1.1507 -0.6354
   60PVA    H5710125   5.958   1.062   4.447  1.5328  0.6229  0.1166
   60PVA    O1010126   6.118   0.973   4.507  0.5888  0.5657  0.5879
   60PVA    H5810127   6.164   0.965   4.593  0.8094 -0.3153  0.4054
   60PVA    C3010128   5.902   0.879   4.572 -0.1071 -0.6906  0.6940
   60PVA    H5910129   5.795   0.888   4.595 -0.9236 -3.5241 -1.4592
   60PVA    H6010130   5.887   0.816   4.483 -4.5246  1.0200 -0.0804
   60PVA    C3110131   5.981   0.778   4.674  0.6956  0.2689  0.1899
   60PVA    H6110132   6.086   0.766   4.646  0.7132  1.0019 -0.0763
   60PVA    H6210133   6.004   0.835   4.765  5.0154  2.8539 -2.2206
   60PVA    C3210134   5.912   0.643   4.698  0.0822  0.0810 -0.9910
   60PVA    H6310135   5.812   0.670   4.735 -0.3428 -2.9685  0.3776
   60PVA    O1110136   5.887   0.565   4.580  0.1398 -0.3323  0.7010
   60PVA    H6410137   5.952   0.570   4.508  0.0570 -3.4009  0.3181
   60PVA    C3310138   5.980   0.574   4.822  0.4483 -0.2002  0.2741
   60PVA    H6510139   5.978   0.653   4.898 -2.5408  4.3321 -3.9084
   60PVA    H6610140   6.087   0.557   4.802  0.3222 -1.2074  0.3943
   60PVA    C3410141   5.898   0.454   4.860 -0.4341  0.2623 -0.7668
   60PVA    H6710142   5.881   0.391   4.771  0.5856 -0.6914 -0.3135
   60PVA    H6810143   5.796   0.493   4.872 -0.6350 -0.8186  1.7287
   60PVA    C3510144   5.941   0.360   4.975 -0.2564 -0.1059  1.1304
   60PVA    H6910145   6.034   0.306   4.953 -0.4131 -0.7373  1.9636
   60PVA    O1210146   5.982   0.453   5.081 -0.5701 -0.9426  0.0425
   60PVA    H7010147   5.990   0.540   5.040 -1.6770 -1.6414 -1.7897
   60PVA    C3610148   5.824   0.261   5.031 -0.1240  0.5583  0.7747
   60PVA    H7110149   5.777   0.317   5.113  1.9850  0.6272  2.0293
   60PVA    H7210150   5.739   0.265   4.962  0.1035  0.9184  0.5152
   60PVA    C3710151   5.885   0.130   5.096  0.2438 -1.3129  0.4977
   60PVA    H7310152   5.813   0.081   5.163 -0.1521 -0.5711  0.6250
   60PVA    H7410153   5.971   0.162   5.157 -0.3964  1.2866  0.1589
   60PVA    C3810154   5.938   0.039   4.980 -0.3894 -0.3147  0.2372
   60PVA    H7510155   6.007   0.087   4.909 -2.4649 -0.5174 -2.0555
   60PVA    O1310156   5.839   0.007   4.897  0.1747  0.5149  0.2647
   60PVA    H7610157   5.868   0.023   4.805  0.9538  2.6831  0.8294
   60PVA    C3910158   5.992   7.597   5.043  0.6527  0.4337 -0.4066
   60PVA    H7710159   5.902   7.555   5.090  1.1627 -1.2448 -0.8698
   60PVA    H7810160   6.070   7.614   5.118  0.2770 -1.7980  0.5550
   60PVA    C4010161   6.050   7.501   4.926  0.6705  0.0431  0.0811
   60PVA    H7910162   5.997   7.533   4.835  0.4807  0.5472  0.3641
   60PVA    H8010163   6.157   7.509   4.902  1.7611 -7.1346  0.2493
   60PVA    C4110164   6.030   7.349   4.947  0.5288  0.5685 -0.0934
   60PVA    H8110165   5.925   7.316   4.948 -0.3490  3.0237  3.1196
   60PVA    O1410166   6.095   7.320   5.070  0.6024  0.7432 -0.2989
   60PVA    H8210167   6.179   7.284   5.038  1.8742  2.2819  1.1407
   60PVA    C4210168   6.079   7.267   4.829 -0.7577 -1.0500 -0.7150
   60PVA    H8310169   6.008   7.287   4.748 -0.7915  1.3663 -0.1507
   60PVA    H8410170   6.175   7.311   4.799  0.9802 -1.7821  3.1275
   60PVA    C4310171   6.103   7.108   4.845  0.0305 -0.0079  0.6460
   60PVA    H8510172   6.128   7.083   4.949  4.5675  0.2272 -0.2029
   60PVA    H8610173   6.196   7.076   4.798 -1.9945  0.0327 -3.9448
   60PVA    C4410174   5.983   7.031   4.788 -0.3180  1.0014 -0.1979
   60PVA    H8710175   5.921   7.068   4.705 -4.4819  0.6591  2.4545
   60PVA    O1510176   5.881   7.007   4.887 -1.0798  0.0606  1.0408
   60PVA    H8810177   5.919   6.940   4.946 -0.7174 -1.8310 -1.1668
   60PVA    C4510178   6.043   6.889   4.740  0.9797 -0.2069  0.5781
   60PVA    H8910179   6.073   6.836   4.831  1.7048 -0.3301  0.2772
   60PVA    H9010180   6.141   6.895   4.690 -0.5746  0.8570 -2.6446
   60PVA    C4610181   5.941   6.805   4.669  0.1770 -0.1877  0.8084
   60PVA    H9110182   5.894   6.863   4.589  1.6341 -0.8201 -0.5466
   60PVA    H9210183   5.863   6.781   4.743  1.1114 -0.7921  1.6314
   60PVA    C4710184   5.997   6.664   4.634 -0.3438  0.2410 -0.1589
   60PVA    H9310185   6.093   6.688   4.586 -1.0666  3.5157 -0.1881
   60PVA    O1610186   6.026   6.587   4.751  0.9886  0.5156  0.0152
   60PVA    H9410187   6.059   6.497   4.734  1.4890  0.8507 -0.8584
   60PVA    C4810188   5.907   6.583   4.531  0.0916  0.1892  0.8280
   60PVA    H9510189   5.799   6.590   4.549 -0.5944  1.3165 -2.8931
   60PVA    H9610190   5.901   6.639   4.437 -1.1455  0.8701  1.2939
   60PVA    C4910191   5.976   6.447   4.502 -0.7255  1.6005  1.1377
   60PVA    H9710192   5.963   6.396   4.598  2.1037  4.0015  2.9775
   60PVA    H9810193   6.084   6.455   4.485 -1.1861  0.9339 -3.4771
   60PVA    C5010194   5.928   6.376   4.378 -0.3437 -0.2166  0.4234
   60PVA    H9910195   5.822   6.351   4.397  0.6869 -3.0214  3.6404
   60PVA    O1710196   5.930   6.463   4.270 -0.9914  0.8098  0.8710
   60PVA   H10010197   6.022   6.464   4.239 -2.0387 -2.3356 -3.3530
   60PVA    C5110198   6.003   6.238   4.344 -0.2827 -0.8625 -0.1567
   60PVA   H10110199   5.988   6.170   4.428  0.6173  0.2033  0.8888
   60PVA   H10210200   6.111   6.254   4.342 -0.3207 -0.4415  0.9663
   61PVA     C110201   3.929   3.092   6.060 -0.4277  0.0917  0.0535
   61PVA     H110202   3.878   3.120   6.154 -1.4551  1.0564 -0.7575
   61PVA     H210203   4.016   3.035   6.094  1.1989  0.5180 -3.0779
   61PVA     C210204   3.840   2.987   5.982  0.2200  0.1193 -0.7740
   61PVA     H310205   3.828   2.906   6.055  2.1909  2.7727  2.7809
   61PVA     O110206   3.901   2.941   5.861  0.8300 -1.4926  0.3499
   61PVA     H410207   3.870   2.995   5.787  1.2108 -1.6348  0.0855
   61PVA     C310208   3.702   3.048   5.952  0.6810 -1.1744  0.5660
   61PVA     H510209   3.700   3.158   5.943  2.0634 -1.2935 -3.0470
   61PVA     H610210   3.644   3.033   6.044  2.7315  1.8494  2.5469
   61PVA     C410211   3.588   3.001   5.844 -0.6520 -0.1736 -0.0944
   61PVA     H710212   3.509   3.077   5.835 -0.3017  0.0142 -2.0132
   61PVA     H810213   3.640   2.989   5.749 -0.1889  0.3017  0.0937
   61PVA     C510214   3.502   2.878   5.873 -0.9217 -0.5205 -0.2817
   61PVA     H910215   3.453   2.895   5.970 -0.6645  2.3771 -0.5822
   61PVA     O210216   3.601   2.775   5.902 -0.0437  1.1487  0.1646
   61PVA    H1010217   3.676   2.819   5.945 -0.8733  2.4903  0.3081
   61PVA     C610218   3.389   2.839   5.778 -0.0681 -0.2086  0.0012
   61PVA    H1110219   3.340   2.932   5.744 -1.5839 -0.4518  1.4151
   61PVA    H1210220   3.432   2.802   5.684  1.3599 -2.7312  1.5586
   61PVA     C710221   3.286   2.730   5.822 -0.7674  0.5693 -0.7537
   61PVA    H1310222   3.215   2.723   5.739  0.6715  0.9887 -2.0745
   61PVA    H1410223   3.227   2.776   5.902  0.5444  3.0370 -1.0926
   61PVA     C810224   3.332   2.591   5.875  1.0784 -0.3309 -0.0845
   61PVA    H1510225   3.390   2.528   5.807  2.8389 -1.3859  2.2344
   61PVA     O310226   3.411   2.613   5.988  0.2490  0.2672 -0.0621
   61PVA    H1610227   3.485   2.671   5.963  0.3959  0.9173  1.7448
   61PVA     C910228   3.211   2.510   5.921 -0.6211  0.0384  0.3580
   61PVA    H1710229   3.128   2.529   5.852 -1.6106 -4.0349  0.2314
   61PVA    H1810230   3.174   2.558   6.013 -2.0361  4.2634 -2.1366
   61PVA    C1010231   3.232   2.359   5.952 -0.5207  0.0865  0.5876
   61PVA    H1910232   3.250   2.305   5.858  3.8114 -1.7095  2.1586
   61PVA    H2010233   3.326   2.340   6.007  2.1047  1.7084 -2.9767
   61PVA    C1110234   3.120   2.292   6.022 -0.0948  0.8155 -0.3270
   61PVA    H2110235   3.108   2.345   6.117 -0.2896  0.7531 -0.3160
   61PVA     O410236   3.010   2.286   5.953 -0.1534 -0.2704  0.5191
   61PVA    H2210237   2.969   2.372   5.975 -5.4290 -2.5621  1.0871
   61PVA    C1210238   3.153   2.139   6.047 -0.6264  1.0646  0.4194
   61PVA    H2310239   3.160   2.102   5.944 -0.5734  0.8201  0.5116
   61PVA    H2410240   3.255   2.135   6.086 -0.7590  1.2787  0.8023
   61PVA    C1310241   3.052   2.045   6.127  0.8739 -0.0408 -0.0512
   61PVA    H2510242   2.977   2.000   6.061 -2.8342  2.7527  1.8376
   61PVA    H2610243   2.989   2.110   6.189 -0.8252  0.3634 -2.0926
   61PVA    C1410244   3.099   1.925   6.208 -0.2178 -0.6512 -0.1036
   61PVA    H2710245   3.201   1.912   6.171 -0.4787 -0.2605 -0.9919
   61PVA     O510246   3.024   1.813   6.183 -0.7415 -0.1193  0.5865
   61PVA    H2810247   3.027   1.751   6.258 -3.0683 -0.0440  0.8060
   61PVA    C1510248   3.092   1.915   6.365  0.0549 -0.2459 -0.7937
   61PVA    H2910249   2.995   1.907   6.416  0.5286  0.4247  0.2589
   61PVA    H3010250   3.132   2.012   6.399 -1.0041 -0.2224  0.4552
   61PVA    C1610251   3.189   1.813   6.437 -1.1746  1.1397  0.5876
   61PVA    H3110252   3.127   1.725   6.461 -1.4687  0.7368 -1.4686
   61PVA    H3210253   3.275   1.771   6.383 -2.8267 -0.7821 -0.7079
   61PVA    C1710254   3.221   1.831   6.586 -0.1461  0.0816 -0.5333
   61PVA    H3310255   3.212   1.737   6.642  1.7603  1.4505  2.3600
   61PVA     O610256   3.121   1.907   6.648  0.1883 -0.2083 -0.0465
   61PVA    H3410257   3.136   1.999   6.617  1.2473 -0.6107 -0.7823
   61PVA    C1810258   3.372   1.871   6.618  0.6715 -0.9367  0.6508
   61PVA    H3510259   3.422   1.780   6.653  3.0197  0.5648  1.4581
   61PVA    H3610260   3.408   1.906   6.521  0.8989  0.9455  1.3752
   61PVA    C1910261   3.382   1.982   6.729 -0.2178  0.5116 -0.4545
   61PVA    H3710262   3.310   1.963   6.809  1.4046 -4.9808  0.1565
   61PVA    H3810263   3.332   2.067   6.682 -1.8330 -0.9699 -1.5817
   61PVA    C2010264   3.519   2.020   6.789 -0.5453  0.1961  0.2607
   61PVA    H3910265   3.502   2.092   6.870 -0.4684 -0.6118  1.0205
   61PVA     O710266   3.570   1.894   6.845  0.2714 -0.0517 -0.2143
   61PVA    H4010267   3.505   1.824   6.822 -0.7757  0.0339  2.1676
   61PVA    C2110268   3.609   2.071   6.686 -0.2548  0.1793 -0.2852
   61PVA    H4110269   3.556   2.123   6.606  0.6424  0.7379 -0.5221
   61PVA    H4210270   3.679   1.996   6.646 -1.5082 -0.5448 -1.2188
   61PVA    C2210271   3.709   2.179   6.724  0.1443 -0.0821  1.3674
   61PVA    H4310272   3.682   2.260   6.793  2.6242  3.2283 -1.2001
   61PVA    H4410273   3.793   2.119   6.760  1.2448 -0.0901 -1.0578
   61PVA    C2310274   3.752   2.257   6.588  0.0908 -0.4172 -0.6086
   61PVA    H4510275   3.774   2.182   6.511  4.0351  1.2491 -1.3414
   61PVA     O810276   3.659   2.346   6.539 -0.5538 -0.3137 -0.8432
   61PVA    H4610277   3.633   2.299   6.458  2.0526 -2.6957 -0.4453
   61PVA    C2410278   3.878   2.349   6.577 -0.0128  0.3735  0.9600
   61PVA    H4710279   3.974   2.295   6.574  0.0411  0.4459 -2.2593
   61PVA    H4810280   3.881   2.388   6.475  0.3558 -3.4682 -0.6831
   61PVA    C2510281   3.894   2.460   6.684  0.5216 -0.8176 -0.1070
   61PVA    H4910282   3.899   2.411   6.782  2.6608  1.3662  0.9665
   61PVA    H5010283   3.805   2.524   6.690 -0.5762 -2.4396  3.3249
   61PVA    C2610284   4.009   2.558   6.676  0.1130 -0.5809 -0.0919
   61PVA    H5110285   3.992   2.627   6.593  0.5997 -0.2783  0.0575
   61PVA     O910286   4.134   2.506   6.624  0.3363  0.3971 -0.4168
   61PVA    H5210287   4.137   2.554   6.539 -2.5661  4.4266  1.4590
   61PVA    C2710288   4.043   2.636   6.802  0.5157 -0.7105  0.4286
   61PVA    H5310289   4.094   2.582   6.884 -0.9596 -1.4182  0.9070
   61PVA    H5410290   3.943   2.669   6.833 -0.2182 -3.7977  1.7333
   61PVA    C2810291   4.142   2.755   6.782 -0.7761  0.1021 -0.0404
   61PVA    H5510292   4.118   2.804   6.687 -0.5546  3.9482  1.6842
   61PVA    H5610293   4.245   2.716   6.774 -1.3772 -1.3285 -1.1689
   61PVA    C2910294   4.152   2.860   6.885 -1.5437 -1.0444  0.7568
   61PVA    H5710295   4.176   2.819   6.984 -0.5695  4.5268  3.2166
   61PVA    O1010296   4.031   2.923   6.897  0.4323 -0.6371  0.1906
   61PVA    H5810297   3.997   2.917   6.807  0.4467  1.6848 -0.0298
   61PVA    C3010298   4.266   2.961   6.846  0.0133  0.7659  0.5258
   61PVA    H5910299   4.357   2.903   6.862  0.8721  2.5097  2.4642
   61PVA    H6010300   4.261   2.976   6.738  1.6289  1.4036  0.5181
   61PVA    C3110301   4.275   3.096   6.919  0.2971 -0.7429 -0.4878
   61PVA    H6110302   4.172   3.115   6.951 -0.0383 -0.8874 -1.4525
   61PVA    H6210303   4.306   3.172   6.845 -0.6094  1.0272  0.8662
   61PVA    C3210304   4.373   3.110   7.039  0.0603 -0.2553 -0.1353
   61PVA    H6310305   4.412   3.012   7.071 -2.8976 -1.0397  1.4926
   61PVA    O1110306   4.299   3.146   7.154  0.4211 -0.0804  0.6105
   61PVA    H6410307   4.231   3.079   7.169  1.0543 -0.9944 -0.4471
   61PVA    C3310308   4.486   3.218   7.010  0.4523  0.1768  0.5179
   61PVA    H6510309   4.423   3.307   6.994 -4.7902 -3.4991 -2.0995
   61PVA    H6610310   4.535   3.202   6.913  1.5245 -2.3884  1.4080
   61PVA    C3410311   4.590   3.244   7.111  0.6676  0.5370  0.0348
   61PVA    H6710312   4.588   3.157   7.178  1.1813  0.3159 -0.2265
   61PVA    H6810313   4.565   3.339   7.159 -3.3437 -1.4823  2.4922
   61PVA    C3510314   4.736   3.234   7.056  0.1154  0.0274 -0.1470
   61PVA    H6910315   4.733   3.294   6.964  0.7000 -0.9699 -0.8343
   61PVA    O1210316   4.784   3.105   7.047  0.5064  0.2533  0.1053
   61PVA    H7010317   4.823   3.085   7.134 -1.5039  3.8971  2.0921
   61PVA    C3610318   4.842   3.293   7.147 -0.1884  0.4569 -0.4970
   61PVA    H7110319   4.874   3.234   7.234 -1.1414  2.6407  1.4335
   61PVA    H7210320   4.813   3.392   7.184  4.5429  1.9880 -0.1789
   61PVA    C3710321   4.961   3.344   7.061 -0.0114  1.0360 -0.1552
   61PVA    H7310322   4.913   3.415   6.992  0.4129  2.8194  1.2779
   61PVA    H7410323   5.004   3.259   7.008 -1.1154 -1.2121  2.3102
   61PVA    C3810324   5.088   3.411   7.133  0.1037 -0.1833 -0.0288
   61PVA    H7510325   5.147   3.333   7.183  2.7869  1.5106 -0.3559
   61PVA    O1310326   5.063   3.515   7.223  0.0060 -0.3343 -0.0804
   61PVA    H7610327   5.015   3.581   7.171 -0.4688 -0.8920 -0.3587
   61PVA    C3910328   5.191   3.463   7.032 -0.2290 -0.2822 -0.2327
   61PVA    H7710329   5.136   3.538   6.974 -4.7190 -2.7025  0.4548
   61PVA    H7810330   5.217   3.390   6.955  0.0877 -0.4224  0.0049
   61PVA    C4010331   5.324   3.498   7.097 -0.4284  0.9198  0.6331
   61PVA    H7910332   5.309   3.592   7.152  3.7677  0.3778  3.2187
   61PVA    H8010333   5.355   3.431   7.179  0.7596  3.3975  2.3275
   61PVA    C4110334   5.433   3.511   6.982  0.1091 -0.4552  0.2112
   61PVA    H8110335   5.437   3.428   6.910  0.7583  1.3524 -1.9517
   61PVA    O1410336   5.416   3.628   6.897 -0.0681 -0.5963  1.2655
   61PVA    H8210337   5.347   3.640   6.830  0.6681  4.3667  0.9943
   61PVA    C4210338   5.563   3.515   7.061 -0.7336 -0.3935 -0.6693
   61PVA    H8310339   5.643   3.570   7.011  1.2963 -3.8730 -1.6015
   61PVA    H8410340   5.542   3.557   7.161  0.1828 -2.3749  0.4164
   61PVA    C4310341   5.620   3.374   7.088 -0.2457 -0.7702 -0.6914
   61PVA    H8510342   5.536   3.308   7.110  0.2604 -1.2840 -0.2655
   61PVA    H8610343   5.683   3.361   7.176 -3.5104 -3.1436  1.5215
   61PVA    C4410344   5.682   3.297   6.975 -0.3083  0.5242 -1.5139
   61PVA    H8710345   5.614   3.319   6.892 -0.0212  2.1181 -1.3699
   61PVA    O1510346   5.801   3.369   6.941  0.1888 -0.1681 -0.5549
   61PVA    H8810347   5.800   3.384   6.845  1.8443 -0.6099 -0.6689
   61PVA    C4510348   5.716   3.140   6.999  0.0164  0.1749  0.6324
   61PVA    H8910349   5.784   3.128   7.084 -0.0490 -0.8174  0.5647
   61PVA    H9010350   5.632   3.071   7.014  1.8104 -2.5663 -1.0206
   61PVA    C4610351   5.765   3.081   6.865  0.2119  0.8998  0.2663
   61PVA    H9110352   5.722   3.128   6.775  0.6100  2.1818  0.7271
   61PVA    H9210353   5.868   3.113   6.845  1.4030 -3.0046 -0.8418
   61PVA    C4710354   5.769   2.923   6.835  1.0087  0.5400  0.3848
   61PVA    H9310355   5.839   2.913   6.751  1.6191 -2.8149  1.1420
   61PVA    O1610356   5.640   2.878   6.795 -0.3769  0.8508  0.0264
   61PVA    H9410357   5.588   2.954   6.764 -3.6886 -1.3867 -0.3726
   61PVA    C4810358   5.827   2.843   6.947 -0.2958 -0.5011 -0.6292
   61PVA    H9510359   5.900   2.915   6.986  0.0387 -2.3892  2.6674
   61PVA    H9610360   5.750   2.821   7.022 -0.9419 -0.0511 -1.1498
   61PVA    C4910361   5.901   2.705   6.907  2.5940 -0.9580  1.0025
   61PVA    H9710362   5.874   2.620   6.970  3.5539 -1.7767  0.3543
   61PVA    H9810363   5.844   2.673   6.818 -1.4785  3.7782  1.4642
   61PVA    C5010364   6.054   2.720   6.864  1.3187 -0.6248  0.6166
   61PVA    H9910365   6.081   2.775   6.773 -2.9428 -1.5613 -1.4949
   61PVA    O1710366   6.078   2.587   6.810  0.9428 -0.3479  0.4538
   61PVA   H10010367   6.162   2.579   6.762  1.0140 -0.9350  0.6764
   61PVA    C5110368   6.159   2.756   6.975 -0.1564  1.4440 -0.1920
   61PVA   H10110369   6.240   2.685   6.955 -0.7746  1.2612 -2.3379
   61PVA   H10210370   6.101   2.708   7.054 -1.1492 -2.9462 -3.2505
   62PVA     C110371   5.228   6.231   3.626 -0.3688 -0.6275 -0.0413
   62PVA     H110372   5.229   6.294   3.536  2.2938  0.1890  0.4754
   62PVA     H210373   5.130   6.243   3.674 -0.3920 -0.6357 -0.0865
   62PVA     C210374   5.232   6.096   3.562 -0.1595  0.2979 -0.0285
   62PVA     H310375   5.254   6.024   3.642  2.4890  1.1837  0.1555
   62PVA     O110376   5.354   6.091   3.480  0.0153 -0.4152 -0.9178
   62PVA     H410377   5.339   6.027   3.408 -3.4679 -0.4647 -0.3243
   62PVA     C310378   5.101   6.061   3.472 -0.3475 -0.5707 -0.2898
   62PVA     H510379   5.018   6.069   3.543 -0.7736 -1.8641 -0.6051
   62PVA     H610380   5.069   6.133   3.396 -2.5110 -0.4313  0.6979
   62PVA     C410381   5.092   5.925   3.392 -0.2762 -0.6607 -0.3129
   62PVA     H710382   5.155   5.851   3.444 -0.1243 -0.6358 -0.4584
   62PVA     H810383   5.144   5.948   3.298 -1.7129 -0.1162 -1.0023
   62PVA     C510384   4.963   5.864   3.344  0.4045  0.2158  0.1622
   62PVA     H910385   4.914   5.823   3.433 -0.0950 -0.1050 -0.2561
   62PVA     O210386   4.881   5.957   3.286  0.2923 -0.2646 -0.1061
   62PVA    H1010387   4.871   6.033   3.346 -0.8257  0.1321 -0.7581
   62PVA     C610388   5.003   5.764   3.237  0.0776  1.1066  1.4132
   62PVA    H1110389   5.030   5.830   3.154  1.1315 -0.6392  0.2935
   62PVA    H1210390   5.091   5.705   3.267  0.3707  1.6362  1.6045
   62PVA     C710391   4.890   5.658   3.195 -0.5484  0.5401 -0.0763
   62PVA    H1310392   4.820   5.715   3.133  0.2959  2.3621  0.5712
   62PVA    H1410393   4.823   5.650   3.281 -2.8089 -0.1179 -1.8057
   62PVA     C810394   4.921   5.521   3.131  0.4454 -0.8780 -0.1392
   62PVA    H1510395   4.984   5.537   3.042 -0.1740 -1.8575 -0.7804
   62PVA     O310396   4.981   5.448   3.237  0.8955  0.0316 -0.1868
   62PVA    H1610397   5.074   5.438   3.213  0.8382  0.3116 -0.5262
   62PVA     C910398   4.787   5.458   3.071  0.5732  0.7029  0.6461
   62PVA    H1710399   4.765   5.522   2.984  2.2366  0.3181 -0.1033
   62PVA    H1810400   4.717   5.479   3.153  1.4294  1.2768  1.2499
   62PVA    C1010401   4.796   5.309   3.045 -0.2395  0.8406  0.1723
   62PVA    H1910402   4.745   5.261   3.129  0.7586 -2.9767 -1.2018
   62PVA    H2010403   4.894   5.259   3.052 -2.2478 -3.3333  2.4089
   62PVA    C1110404   4.740   5.262   2.915 -0.2610  0.3222 -0.8406
   62PVA    H2110405   4.792   5.327   2.843  0.2852 -0.3905 -1.1036
   62PVA     O410406   4.599   5.293   2.906  0.3314  0.7241  0.1638
   62PVA    H2210407   4.556   5.237   2.974 -2.3789  0.4465 -1.6154
   62PVA    C1210408   4.783   5.118   2.861 -1.2578 -0.3060 -0.6864
   62PVA    H2310409   4.893   5.121   2.853 -1.2607  2.7906 -0.9754
   62PVA    H2410410   4.761   5.053   2.946 -0.0141  1.1849  0.8406
   62PVA    C1310411   4.725   5.064   2.731  1.3290  0.7524 -0.8917
   62PVA    H2510412   4.738   5.137   2.650 -0.7958  1.0275 -1.0245
   62PVA    H2610413   4.618   5.046   2.748  1.1573  1.5574 -1.0806
   62PVA    C1410414   4.780   4.929   2.687  0.4411  0.7442  0.0811
   62PVA    H2710415   4.885   4.959   2.676  0.4195  0.8491  0.1628
   62PVA     O510416   4.780   4.836   2.774  0.2247  1.1846 -1.1264
   62PVA    H2810417   4.692   4.854   2.811  1.0321  4.2168 -0.3633
   62PVA    C1510418   4.710   4.887   2.553  0.5591 -0.4663  0.7691
   62PVA    H2910419   4.614   4.834   2.562 -0.3084 -0.1805 -4.0451
   62PVA    H3010420   4.712   4.984   2.502  1.8089  1.4259  4.0809
   62PVA    C1610421   4.812   4.808   2.472 -1.0179 -0.5453  0.9417
   62PVA    H3110422   4.899   4.870   2.451 -2.5787  1.6482  0.5900
   62PVA    H3210423   4.849   4.732   2.543  1.5018 -1.0666 -0.8172
   62PVA    C1710424   4.764   4.739   2.343  0.6683 -0.5352 -0.0421
   62PVA    H3310425   4.701   4.812   2.290 -0.6353 -2.1836 -0.8693
   62PVA     O610426   4.665   4.637   2.393 -0.2613 -0.1696  0.7179
   62PVA    H3410427   4.602   4.630   2.319  1.2408 -2.9543 -0.4665
   62PVA    C1810428   4.870   4.700   2.238  0.7645  0.1591  0.2785
   62PVA    H3510429   4.937   4.625   2.280 -0.5128 -3.4946 -3.4953
   62PVA    H3610430   4.921   4.795   2.219 -5.9968  4.6343  0.8919
   62PVA    C1910431   4.822   4.645   2.098  0.2379 -0.4074 -0.0152
   62PVA    H3710432   4.746   4.565   2.103 -0.4067  0.0069 -2.2443
   62PVA    H3810433   4.777   4.723   2.037  1.5329 -1.2955 -2.2061
   62PVA    C2010434   4.948   4.587   2.036  0.1421  0.3358  1.0201
   62PVA    H3910435   4.985   4.507   2.102  6.0493  0.0540 -1.9313
   62PVA     O710436   5.057   4.680   2.009  0.9803  0.1251 -0.1443
   62PVA    H4010437   5.047   4.725   1.923  1.7675 -2.7056 -1.8497
   62PVA    C2110438   4.919   4.520   1.899  0.7815 -0.6880  0.8158
   62PVA    H4110439   4.847   4.438   1.907 -0.1435 -0.6475 -3.9440
   62PVA    H4210440   4.871   4.598   1.838 -3.1308 -3.3600  0.0918
   62PVA    C2210441   5.035   4.443   1.823  0.5810  0.1974  0.7180
   62PVA    H4310442   5.105   4.520   1.788 -1.2074  0.5734 -2.3318
   62PVA    H4410443   5.095   4.384   1.894  0.1006 -1.6623 -0.3680
   62PVA    C2310444   5.006   4.339   1.717  0.1006 -0.0651  0.4123
   62PVA    H4510445   4.955   4.402   1.644 -0.6866  0.8209  1.6807
   62PVA     O810446   4.915   4.238   1.764  0.3013  0.1564  0.4694
   62PVA    H4610447   4.965   4.161   1.734  0.5280  1.1639 -2.0036
   62PVA    C2410448   5.153   4.290   1.651  0.1088  0.0948 -0.1725
   62PVA    H4710449   5.193   4.371   1.588  3.4783  1.3841  3.2626
   62PVA    H4810450   5.225   4.252   1.724 -1.9775 -1.5484  1.1510
   62PVA    C2510451   5.139   4.165   1.552 -0.1677 -0.1702  0.2547
   62PVA    H4910452   5.078   4.187   1.464  0.7388 -2.4615 -1.0339
   62PVA    H5010453   5.094   4.082   1.608  1.3552  0.0391  1.8741
   62PVA    C2610454   5.275   4.103   1.500 -0.2796  0.0524 -0.1825
   62PVA    H5110455   5.313   4.172   1.424 -1.7679 -1.3360 -2.3160
   62PVA     O910456   5.364   4.065   1.607 -0.3717  0.2896  0.3579
   62PVA    H5210457   5.447   4.077   1.558 -0.0251  0.5005  0.9952
   62PVA    C2710458   5.251   3.976   1.418  1.3626  0.4549 -0.0237
   62PVA    H5310459   5.238   3.894   1.490 -1.6972 -2.8387 -3.8069
   62PVA    H5410460   5.157   3.985   1.361 -3.7412  3.9054  7.2822
   62PVA    C2810461   5.372   3.951   1.335  1.0569 -0.0578 -0.5273
   62PVA    H5510462   5.437   3.903   1.409  1.6094 -4.5778 -3.5651
   62PVA    H5610463   5.418   4.035   1.281  0.2959  2.9741  3.1461
   62PVA    C2910464   5.342   3.829   1.258  0.5593 -0.0969 -0.5378
   62PVA    H5710465   5.299   3.743   1.312 -4.3092  1.4898 -1.3970
   62PVA    O1010466   5.249   3.856   1.159  0.1617 -0.1943 -0.4663
   62PVA    H5810467   5.254   3.944   1.120  4.2892  0.1410  0.3907
   62PVA    C3010468   5.475   3.764   1.186 -0.1063 -0.1363 -1.2131
   62PVA    H5910469   5.543   3.844   1.155 -2.2739  2.3992  0.1968
   62PVA    H6010470   5.522   3.705   1.265  0.9049  1.4244 -0.6095
   62PVA    C3110471   5.458   3.671   1.060 -0.1278 -0.4528  0.0856
   62PVA    H6110472   5.405   3.724   0.980  0.1910  1.4155  1.0338
   62PVA    H6210473   5.392   3.588   1.086 -2.3733  1.3277  0.3568
   62PVA    C3210474   5.606   3.627   1.010  1.1990 -0.0398  0.0203
   62PVA    H6310475   5.645   3.561   1.089  0.7538  1.1783  1.3103
   62PVA    O1110476   5.696   3.733   1.010  0.4831 -0.1771 -0.6898
   62PVA    H6410477   5.641   3.807   0.979  0.2020  0.3404  0.9720
   62PVA    C3310478   5.605   3.554   0.882 -0.0613  0.3504  0.9501
   62PVA    H6510479   5.598   3.619   0.795  2.2677 -1.4231 -0.7009
   62PVA    H6610480   5.513   3.495   0.876  0.1880 -0.0709  1.1926
   62PVA    C3410481   5.729   3.468   0.861 -0.5044 -0.4291 -1.1454
   62PVA    H6710482   5.818   3.526   0.891 -1.6701  1.0561 -0.4523
   62PVA    H6810483   5.718   3.388   0.935 -2.7127  1.6268  0.9281
   62PVA    C3510484   5.757   3.408   0.720 -0.5440  0.8713 -0.0373
   62PVA    H6910485   5.781   3.498   0.661 -2.1893  0.1342 -1.9553
   62PVA    O1210486   5.630   3.348   0.681  0.2957 -0.0253  0.3603
   62PVA    H7010487   5.594   3.303   0.759  1.2759  0.7843  1.3115
   62PVA    C3610488   5.870   3.302   0.751  0.9936  0.1849  0.1249
   62PVA    H7110489   5.961   3.338   0.801  1.4634  3.0852 -2.5500
   62PVA    H7210490   5.824   3.224   0.813 -3.1878  1.8665 -0.4743
   62PVA    C3710491   5.929   3.237   0.632 -0.6840 -0.0084 -0.7357
   62PVA    H7310492   5.995   3.156   0.667  0.8814  0.0994 -3.1702
   62PVA    H7410493   6.003   3.305   0.588  0.6288 -0.8367  0.1059
   62PVA    C3810494   5.833   3.190   0.516  0.1175 -0.5032  0.4057
   62PVA    H7510495   5.782   3.262   0.451  0.3131  0.0446  0.8576
   62PVA    O1310496   5.727   3.098   0.578 -0.2708 -0.1997  0.0816
   62PVA    H7610497   5.668   3.172   0.602  0.5432  0.1687  0.9955
   62PVA    C3910498   5.907   3.099   0.411 -0.1857  0.4119 -0.0933
   62PVA    H7710499   5.973   3.158   0.347  0.3772  2.7847  2.4892
   62PVA    H7810500   5.963   3.019   0.461  0.2760 -1.0332 -2.6923
   62PVA    C4010501   5.817   3.022   0.306 -0.3835 -0.8619 -1.1757
   62PVA    H7910502   5.760   2.942   0.356 -1.9794  0.7944 -0.2099
   62PVA    H8010503   5.743   3.100   0.283 -3.6309 -3.2707  0.2678
   62PVA    C4110504   5.881   2.962   0.187  0.2776  0.3901  0.9634
   62PVA    H8110505   5.789   2.916   0.148 -2.0900  3.3398  2.5982
   62PVA    O1410506   5.968   2.858   0.206 -1.0335 -0.0099 -0.0022
   62PVA    H8210507   6.049   2.884   0.254 -1.7425  3.1324 -0.2904
   62PVA    C4210508   5.954   3.066   0.097 -0.7160 -0.7306  0.1933
   62PVA    H8310509   5.919   3.166   0.123  1.7313 -0.7289  4.4788
   62PVA    H8410510   6.058   3.059   0.129 -1.4979 -1.5752  2.7914
   62PVA    C4310511   5.937   3.049   8.046 -0.0553  0.1852  1.3921
   62PVA    H8510512   5.923   2.945   8.014 -1.2053  0.9208 -0.6683
   62PVA    H8610513   5.839   3.091   8.021 -0.7778 -2.5764 -0.9451
   62PVA    C4410514   6.036   3.100   7.946 -0.9654 -0.8832 -0.2786
   62PVA    H8710515   6.113   3.028   7.976 -0.6193 -0.2880  0.2650
   62PVA    O1510516   6.076   3.238   7.976 -0.1061 -0.2433  0.2813
   62PVA    H8810517   6.152   3.269   7.924 -1.9254 -1.1394 -3.1920
   62PVA    C4510518   6.013   3.067   7.798  0.5423  0.6970  0.8120
   62PVA    H8910519   5.954   3.141   7.742  3.6535  1.4228 -1.7980
   62PVA    H9010520   5.953   2.975   7.794 -1.5644  1.9758  1.4766
   62PVA    C4610521   6.149   3.029   7.711 -0.6470  0.0430  0.4226
   62PVA    H9110522   6.220   2.972   7.773  1.0509  0.4546 -1.0575
   62PVA    H9210523   6.130   2.978   7.616 -1.1672 -1.1995  1.1829
   62PVA    C4710524   6.221   3.161   7.673 -0.2773 -1.1762 -0.1977
   62PVA    H9310525   6.157   3.239   7.629 -0.9351 -1.4508  0.2489
   62PVA    O1610526   6.275   3.190   7.796 -0.1967 -0.4543  0.0764
   62PVA    H9410527   6.372   3.178   7.803 -0.4614 -1.7617  2.8637
   62PVA    C4810528   6.335   3.153   7.582 -0.6146 -0.8593 -0.9267
   62PVA    H9510529   6.394   3.068   7.619 -1.6066 -0.3183  2.2045
   62PVA    H9610530   6.393   3.247   7.581 -1.4224  0.0930  5.0277
   62PVA    C4910531   6.297   3.124   7.432 -0.1079  0.3706 -0.4377
   62PVA    H9710532   6.227   3.042   7.413 -0.4678  0.9030 -1.5162
   62PVA    H9810533   6.251   3.217   7.396  3.3406  3.2663  1.9829
   62PVA    C5010534   6.424   3.103   7.332 -0.3419  1.4837 -0.1262
   62PVA    H9910535   6.518   3.150   7.362  1.2547 -2.9105  2.7209
   62PVA    O1710536   6.467   2.972   7.338 -0.9356 -0.8839  0.2942
   62PVA   H10010537   6.495   2.973   7.431  0.2869 -1.5563 -0.0386
   62PVA    C5110538   6.417   3.152   7.187 -0.8745  0.7574 -0.5010
   62PVA   H10110539   6.517   3.167   7.146 -0.9424  0.1425 -0.8969
   62PVA   H10210540   6.386   3.257   7.193 -2.5696  0.4286 -2.2278
   63PVA     C110541   5.615   6.535   3.822 -0.1392 -0.8625 -0.1143
   63PVA     H110542   5.581   6.638   3.835  0.1714 -0.1389 -3.8284
   63PVA     H210543   5.634   6.508   3.717  0.7471 -2.6009  0.4570
   63PVA     C210544   5.742   6.527   3.907 -0.6743  0.4820 -0.7694
   63PVA     H310545   5.768   6.421   3.896 -4.2970 -1.1379  2.9869
   63PVA     O110546   5.716   6.561   4.043  0.4097  0.2492  0.0117
   63PVA     H410547   5.774   6.507   4.099  0.7785  1.6096  0.9722
   63PVA     C310548   5.850   6.615   3.852 -0.5270  0.1885  0.2214
   63PVA     H510549   5.841   6.616   3.742 -0.2870 -3.5203  0.0231
   63PVA     H610550   5.944   6.562   3.872 -0.2293 -0.6104 -2.7964
   63PVA     C410551   5.879   6.752   3.928  0.5519  0.1521  0.2302
   63PVA     H710552   5.779   6.797   3.928  1.7975  3.1451  0.1165
   63PVA     H810553   5.923   6.743   4.028  1.6944 -1.4093 -0.3814
   63PVA     C510554   5.955   6.865   3.853 -0.7324  1.7903  0.6583
   63PVA     H910555   5.924   6.858   3.749  1.6754 -1.8709 -0.0138
   63PVA     O210556   6.099   6.843   3.870  0.1343 -0.2313 -0.0968
   63PVA    H1010557   6.134   6.927   3.835 -0.1683  0.7069  1.7463
   63PVA     C610558   5.939   7.013   3.920 -0.1556 -0.7142 -1.3281
   63PVA    H1110559   5.836   7.020   3.957  0.5070 -0.3787  0.5508
   63PVA    H1210560   6.002   7.005   4.009 -2.0880 -0.2944  0.1402
   63PVA     C710561   5.981   7.131   3.825 -1.0031  0.1021  0.3983
   63PVA    H1310562   5.893   7.166   3.771 -1.5028 -2.9667 -0.9739
   63PVA    H1410563   6.053   7.094   3.751  0.8049 -0.6451  2.4057
   63PVA     C810564   6.049   7.241   3.903 -0.8300  0.2741 -0.9571
   63PVA    H1510565   5.968   7.261   3.975 -1.9233  0.4928 -2.2114
   63PVA     O310566   6.162   7.192   3.976  0.0002 -0.2743  0.6479
   63PVA    H1610567   6.214   7.137   3.914  1.7806  0.9941  0.9566
   63PVA     C910568   6.080   7.362   3.808 -0.1807 -0.0442 -0.3032
   63PVA    H1710569   6.149   7.315   3.736 -1.3974  0.4051 -1.8154
   63PVA    H1810570   5.983   7.391   3.766  0.1729  0.0596 -1.0578
   63PVA    C1010571   6.137   7.472   3.900  0.0581 -1.0129 -0.2427
   63PVA    H1910572   6.239   7.438   3.918  1.1940  2.3489  0.4343
   63PVA    H2010573   6.103   7.475   4.004 -1.5694  0.8288 -0.7526
   63PVA    C1110574   6.125   7.607   3.826 -1.5216  0.3027 -0.8822
   63PVA    H2110575   6.161   7.604   3.722  0.6896 -0.0187 -0.1492
   63PVA     O410576   5.993   7.654   3.820 -1.2575 -0.2463  0.0461
   63PVA    H2210577   6.001   0.066   3.828 -0.3099 -0.3519  0.4865
   63PVA    C1210578   6.203   0.024   3.910  0.6206  1.3595 -0.2105
   63PVA    H2310579   6.154   0.040   4.006  0.8126 -3.8168  1.0347
   63PVA    H2410580   6.289   7.655   3.952 -2.0162 -2.7188  0.5360
   63PVA    C1310581   6.239   0.156   3.840  0.6881 -0.4451 -0.0771
   63PVA    H2510582   6.149   0.191   3.788  1.8165  0.5144 -1.4722
   63PVA    H2610583   6.314   0.152   3.760 -0.8787  0.0728 -1.6367
   63PVA    C1410584   6.279   0.277   3.935 -0.3514  1.4082 -0.2072
   63PVA    H2710585   6.199   0.280   4.011  1.4084  3.5654  1.6730
   63PVA     O510586   6.398   0.262   4.010  0.7221 -0.5668  0.4445
   63PVA    H2810587   6.428   0.169   4.010  3.7673  0.2881  1.1929
   63PVA    C1510588   6.282   0.414   3.862 -0.4600 -0.6937  0.5768
   63PVA    H2910589   6.333   0.399   3.766 -1.4709 -0.5279 -0.0048
   63PVA    H3010590   6.344   0.484   3.918  3.0546 -1.6916 -1.7297
   63PVA    C1610591   6.149   0.493   3.826 -0.2322 -0.1527 -0.2311
   63PVA    H3110592   6.080   0.436   3.762 -2.4467 -0.8288  2.5432
   63PVA    H3210593   6.089   0.519   3.914 -0.6631 -2.9721  0.4156
   63PVA    C1710594   6.157   0.640   3.762  0.6728 -0.4427 -0.5853
   63PVA    H3310595   6.224   0.689   3.834 -2.5000 -0.5987  2.7890
   63PVA     O610596   6.212   0.621   3.628  0.4431  0.1991 -0.2538
   63PVA    H3410597   6.271   0.544   3.627 -2.5756 -2.2985 -1.4113
   63PVA    C1810598   6.013   0.725   3.763 -0.1310  1.1141 -0.3149
   63PVA    H3510599   5.963   0.727   3.860  2.0251  2.4504  0.8502
   63PVA    H3610600   5.946   0.663   3.701 -0.3226  0.7626  0.2357
   63PVA    C1910601   6.029   0.858   3.677 -0.0856  0.7456  0.1474
   63PVA    H3710602   6.096   0.927   3.731  2.2343 -2.5364  1.7762
   63PVA    H3810603   6.051   0.831   3.574 -1.8153  1.8818 -0.5748
   63PVA    C2010604   5.899   0.932   3.655  0.6969 -1.0679 -1.0812
   63PVA    H3910605   5.816   0.867   3.627 -1.0599  0.2174  0.8564
   63PVA     O710606   5.855   0.990   3.781  0.3348  0.2035  1.1065
   63PVA    H4010607   5.775   0.938   3.800  2.4355 -3.6144  0.4763
   63PVA    C2110608   5.924   1.046   3.552 -1.2080  0.4329  0.1721
   63PVA    H4110609   5.918   1.002   3.452 -1.9195 -1.0565  0.8338
   63PVA    H4210610   6.027   1.082   3.552 -2.1150  3.2391  0.4632
   63PVA    C2210611   5.838   1.164   3.551 -0.4093  0.9614  0.0178
   63PVA    H4310612   5.736   1.127   3.537  0.2928 -0.0045 -3.2382
   63PVA    H4410613   5.848   1.202   3.654  2.0631  0.7482 -0.0842
   63PVA    C2310614   5.867   1.266   3.434  0.4809  0.0959 -0.0212
   63PVA    H4510615   5.963   1.232   3.393  0.5879 -0.7482  0.8825
   63PVA     O810616   5.750   1.265   3.337  0.8647 -0.4021 -0.0928
   63PVA    H4610617   5.678   1.317   3.376 -1.4485 -3.2201 -0.3411
   63PVA    C2410618   5.870   1.418   3.489  0.2896  1.0283 -0.0120
   63PVA    H4710619   5.780   1.429   3.551 -0.6019 -0.3080 -1.0418
   63PVA    H4810620   5.954   1.430   3.559 -0.3517 -2.8734  1.6754
   63PVA    C2510621   5.880   1.540   3.398 -0.9010  0.7073  0.1420
   63PVA    H4910622   5.787   1.573   3.349  0.8715  1.2296 -3.1887
   63PVA    H5010623   5.945   1.503   3.317  0.5365  0.3309  1.4338
   63PVA    C2610624   5.952   1.651   3.474 -0.2579 -1.0286 -0.2038
   63PVA    H5110625   5.984   1.626   3.576  1.6218  1.4291 -0.1146
   63PVA     O910626   5.879   1.770   3.470  0.0984  0.7763 -0.7157
   63PVA    H5210627   5.788   1.764   3.438  0.1242  0.8802 -0.8098
   63PVA    C2710628   6.072   1.700   3.380  0.4261  0.8313  0.3234
   63PVA    H5310629   6.032   1.706   3.278  2.5398 -0.2732 -0.6134
   63PVA    H5410630   6.132   1.609   3.385  0.2177  0.6127 -0.7735
   63PVA    C2810631   6.162   1.824   3.425 -0.3044  0.6686  0.9094
   63PVA    H5510632   6.116   1.916   3.387  0.6384  0.7918  0.0471
   63PVA    H5610633   6.163   1.828   3.535 -2.6968  0.0770  1.0096
   63PVA    C2910634   6.306   1.831   3.365 -0.0685 -0.2480  0.9623
   63PVA    H5710635   6.376   1.787   3.437  0.4657  2.2603  2.1239
   63PVA    O1010636   6.320   1.782   3.231  0.4387 -0.4274 -0.5190
   63PVA    H5810637   6.271   1.843   3.174 -0.5126 -1.3216 -0.6857
   63PVA    C3010638   6.359   1.972   3.366  0.1486  0.4388  1.0403
   63PVA    H5910639   6.447   1.964   3.301 -0.9071  0.5432 -0.4333
   63PVA    H6010640   6.287   2.046   3.330 -0.2020 -0.6318 -0.5394
   63PVA    C3110641   6.415   2.010   3.506 -0.0359 -0.2090 -0.5427
   63PVA    H6110642   6.336   2.000   3.582 -2.2988 -0.6911 -2.8166
   63PVA    H6210643   6.493   1.933   3.514  0.9901  0.6256 -2.0962
   63PVA    C3210644   6.459   2.160   3.513  0.7717 -0.4190 -0.0881
   63PVA    H6310645   6.551   2.169   3.454  0.6718  2.4860  0.0552
   63PVA    O1110646   6.362   2.256   3.458 -0.4385 -0.0119  0.6932
   63PVA    H6410647   6.404   2.343   3.468 -2.5140  1.1509  0.0011
   63PVA    C3310648   6.474   2.190   3.664 -1.1471  0.0949  0.2062
   63PVA    H6510649   6.500   2.100   3.720  0.6639  1.7124  2.1286
   63PVA    H6610650   6.373   2.198   3.706 -0.5052  1.5055  1.6052
   63PVA    C3410651   6.566   2.313   3.702  0.1069 -0.4356 -0.6909
   63PVA    H6710652   6.670   2.299   3.668 -0.9034  2.0767 -5.7768
   63PVA    H6810653   6.551   2.408   3.650 -0.6059  1.2504  2.3252
   63PVA    C3510654   6.599   2.340   3.858 -0.6964  1.1705 -0.8816
   63PVA    H6910655   6.499   2.340   3.902 -1.5209 -0.9343 -2.5821
   63PVA    O1210656   6.677   2.231   3.906 -0.5616  0.4197  0.0841
   63PVA    H7010657   6.654   2.209   3.998 -2.9131 -0.9664 -0.7697
   63PVA    C3610658   6.656   2.475   3.886  0.3455 -0.6079  0.2953
   63PVA    H7110659   6.752   2.469   3.832 -0.4628  0.4277 -1.3274
   63PVA    H7210660   6.596   2.541   3.822  2.1408  0.1472 -0.6938
   63PVA    C3710661   6.690   2.538   4.019 -1.1075  0.7643 -0.3776
   63PVA    H7310662   6.626   2.485   4.091  0.3341 -1.2360 -0.4777
   63PVA    H7410663   6.784   2.497   4.059 -2.2529 -1.2271  0.4559
   63PVA    C3810664   6.687   2.684   4.049 -0.1583  0.3237  0.3253
   63PVA    H7510665   6.666   2.684   4.157  3.1025 -4.4157  1.2737
   63PVA    O1310666   6.587   2.758   3.978 -0.1490 -1.1541 -0.5813
   63PVA    H7610667   6.619   2.845   3.951 -1.6005 -1.0129 -1.9802
   63PVA    C3910668   6.830   2.757   4.036 -0.4371 -1.4203 -0.8585
   63PVA    H7710669   6.899   2.696   3.976  1.9701  1.8789 -1.7158
   63PVA    H7810670   6.889   2.767   4.128 -0.1869  2.8987 -1.2555
   63PVA    C4010671   6.835   2.907   4.000  0.9660 -1.1236 -0.3838
   63PVA    H7910672   6.818   2.927   3.894  2.5407 -1.0375 -0.6442
   63PVA    H8010673   6.762   2.972   4.049 -0.5059  0.0103 -3.8104
   63PVA    C4110674   6.979   2.987   4.025 -1.2193  0.7650 -0.5148
   63PVA    H8110675   7.018   2.980   4.127  0.6215  6.5466 -0.4705
   63PVA    O1410676   7.076   2.919   3.948 -0.1288  0.3015  0.0274
   63PVA    H8210677   7.082   2.946   3.855  2.5443  1.9001  0.5658
   63PVA    C4210678   6.990   3.134   3.979  0.7195 -0.3412  1.1172
   63PVA    H8310679   6.987   3.149   3.870  0.4604  2.4010  1.4328
   63PVA    H8410680   6.897   3.174   4.021 -0.8387 -1.7700 -0.7921
   63PVA    C4310681   7.127   3.205   4.010 -0.2135 -0.9030 -0.2884
   63PVA    H8510682   7.207   3.148   3.962 -0.9882  0.8470 -3.9713
   63PVA    H8610683   7.134   3.220   4.119  3.5861  2.7041 -0.7997
   63PVA    C4410684   7.146   3.351   3.948 -0.2721  0.5584  0.2937
   63PVA    H8710685   7.164   3.342   3.840  3.2508 -3.2860  0.9422
   63PVA    O1510686   7.024   3.415   3.976 -0.6039 -0.8466  0.0450
   63PVA    H8810687   6.952   3.379   3.921  0.9186 -5.5583  0.7119
   63PVA    C4510688   7.274   3.434   4.001  0.2670  0.5564  0.1141
   63PVA    H8910689   7.351   3.355   3.998 -0.7741 -0.7102 -5.5580
   63PVA    H9010690   7.261   3.450   4.108 -6.0061  0.1471 -0.2373
   63PVA    C4610691   7.326   3.551   3.923  0.3947  0.6307 -0.3000
   63PVA    H9110692   7.244   3.613   3.885  0.4957  0.3679 -0.9547
   63PVA    H9210693   7.359   3.518   3.824  0.9121 -1.3357  0.4842
   63PVA    C4710694   7.428   3.640   3.999 -0.6292  0.9667  0.4122
   63PVA    H9310695   7.389   3.663   4.099  0.1026  0.6723  0.7723
   63PVA    O1610696   7.557   3.563   4.003  0.5984  0.1018  0.3286
   63PVA    H9410697   7.626   3.624   4.034  0.0075  2.0563 -1.8708
   63PVA    C4810698   7.465   3.768   3.919 -1.3833 -0.8301 -0.6729
   63PVA    H9510699   7.535   3.750   3.837  1.7078 -0.6819  1.7302
   63PVA    H9610700   7.378   3.813   3.870 -1.2547 -1.1461 -1.1918
   63PVA    C4910701   7.538   3.871   4.015  0.0028 -0.1469 -1.0316
   63PVA    H9710702   7.572   3.815   4.103  1.5232  0.9840 -0.8748
   63PVA    H9810703   7.464   3.950   4.037  1.0297  2.1857 -5.0462
   63PVA    C5010704   7.661   3.935   3.956  0.2680  0.6480  0.9313
   63PVA    H9910705   7.742   3.861   3.960  1.5233  2.0201  2.5232
   63PVA    O1710706   7.631   3.973   3.825 -0.1047  0.3238 -0.2196
   63PVA   H10010707   7.650   3.912   3.752 -2.3363 -0.3908 -0.2633
   63PVA    C5110708   7.712   4.051   4.049 -0.1459 -0.0725  0.3008
   63PVA   H10110709   0.037   3.998   4.083 -0.7460 -0.5911  1.1312
   63PVA   H10210710   7.640   4.055   4.131  0.7049 -2.0248  1.2094
   64PVA     C110711   6.463   2.967   6.233  0.8211 -0.1587  0.3004
   64PVA     H110712   6.528   3.055   6.230  6.1306 -3.5968  0.5695
   64PVA     H210713   6.493   2.923   6.329  4.1234  0.1674 -0.4867
   64PVA     C210714   6.507   2.862   6.130  0.8091 -1.2791  1.2724
   64PVA     H310715   6.617   2.869   6.136  1.0510  0.7525 -2.5504
   64PVA     O110716   6.472   2.730   6.162  0.4942 -1.0856 -0.2127
   64PVA     H410717   6.546   2.694   6.214  0.5389  2.5587  2.6695
   64PVA     C310718   6.494   2.896   5.975  0.5367 -0.3250 -0.3335
   64PVA     H510719   6.533   2.997   5.961  2.5859 -1.4032 -3.2456
   64PVA     H610720   6.392   2.876   5.939  0.5565 -4.3354  1.2517
   64PVA     C410721   6.586   2.803   5.891  0.5898  0.4489 -1.0951
   64PVA     H710722   6.577   2.699   5.924  4.2798  0.3183 -0.0471
   64PVA     H810723   6.687   2.825   5.929 -0.8632  0.7209  3.1738
   64PVA     C510724   6.563   2.810   5.743  0.0545  1.0162  0.3367
   64PVA     H910725   6.481   2.748   5.705  1.3511  1.6778 -4.1198
   64PVA     O210726   6.691   2.752   5.695 -0.5923 -0.7218  0.3087
   64PVA    H1010727   6.691   2.744   5.598  1.6381 -2.5241  0.3713
   64PVA     C610728   6.539   2.952   5.683  0.2127  0.1697 -0.4606
   64PVA    H1110729   6.445   2.994   5.719  1.4214  0.7282  2.2683
   64PVA    H1210730   6.617   3.015   5.726  1.3787 -1.2536 -0.4104
   64PVA     C710731   6.553   2.945   5.524  1.3333 -0.5620 -1.0006
   64PVA    H1310732   6.646   2.894   5.497  0.8350 -0.0234 -4.1646
   64PVA    H1410733   6.532   3.046   5.486 -1.4078  0.2784  2.2793
   64PVA     C810734   6.431   2.861   5.453 -0.0274 -0.2172 -0.1067
   64PVA    H1510735   6.445   2.755   5.478  0.0586  0.3455  2.5277
   64PVA     O310736   6.304   2.909   5.500 -0.6862 -0.1712  0.6520
   64PVA    H1610737   6.262   2.828   5.535  3.7566 -3.5767 -0.8508
   64PVA     C910738   6.430   2.876   5.295  0.8272  0.0278 -0.2398
   64PVA    H1710739   6.348   2.945   5.271  3.6320  2.5155 -3.5803
   64PVA    H1810740   6.389   2.784   5.251 -0.9309  0.8089 -0.3244
   64PVA    C1010741   6.562   2.914   5.221  0.5740  0.3627  0.0618
   64PVA    H1910742   6.629   2.833   5.253 -0.7347 -0.9153 -0.3284
   64PVA    H2010743   6.603   3.010   5.257 -0.0938  0.0794  1.6308
   64PVA    C1110744   6.567   2.901   5.065 -0.1829  0.7915  0.3149
   64PVA    H2110745   6.510   2.811   5.037 -1.3445  1.9713 -1.2957
   64PVA     O410746   6.522   3.012   4.997  1.3859 -0.3294 -0.4222
   64PVA    H2210747   6.463   2.979   4.928 -0.8616  0.6053  0.9473
   64PVA    C1210748   6.720   2.879   5.020 -0.3431  0.6509  1.0604
   64PVA    H2310749   6.792   2.938   5.078  1.9848 -1.2592  0.2950
   64PVA    H2410750   6.748   2.778   5.054  1.4970  0.3629 -1.0691
   64PVA    C1310751   6.754   2.892   4.871  0.0145  0.0873 -0.0707
   64PVA    H2510752   6.750   2.995   4.832 -1.1138 -0.4379 -1.4142
   64PVA    H2610753   6.669   2.833   4.835 -1.5820  2.5886 -0.6823
   64PVA    C1410754   6.891   2.836   4.822 -0.2728 -0.9052 -0.3103
   64PVA    H2710755   6.907   2.728   4.837  1.9691 -0.9159 -2.0733
   64PVA     O510756   7.006   2.900   4.879  0.5714 -0.2348 -1.2446
   64PVA    H2810757   7.088   2.893   4.827 -1.0719 -0.0911 -4.0460
   64PVA    C1510758   6.913   2.873   4.665  0.3214  0.3419 -1.3509
   64PVA    H2910759   6.930   2.980   4.650  0.0952 -0.0630 -6.1159
   64PVA    H3010760   6.820   2.837   4.620 -3.1233 -1.3613  5.7895
   64PVA    C1610761   7.037   2.804   4.599 -0.2160  0.5998 -0.8581
   64PVA    H3110762   7.134   2.819   4.648 -0.2032  0.7108 -0.9176
   64PVA    H3210763   7.026   2.695   4.591 -1.3417  0.5416  0.8734
   64PVA    C1710764   7.073   2.852   4.458 -0.4518  0.0795 -0.1944
   64PVA    H3310765   6.993   2.825   4.388 -1.0796 -2.7164  1.4275
   64PVA     O610766   7.078   2.994   4.450  0.0479  0.0503  0.4445
   64PVA    H3410767   7.155   3.006   4.391  1.0132  1.1649  1.8671
   64PVA    C1810768   7.206   2.790   4.410  0.3520  0.1691  0.2713
   64PVA    H3510769   7.192   2.681   4.409 -1.1128  0.3327 -0.2689
   64PVA    H3610770   7.284   2.807   4.485  0.0462 -0.0799  0.6479
   64PVA    C1910771   7.251   2.824   4.265  0.6292 -0.1127  0.7681
   64PVA    H3710772   7.163   2.830   4.199  0.5459 -1.8428  0.6875
   64PVA    H3810773   7.311   2.741   4.226  1.1970  0.2267  0.9159
   64PVA    C2010774   7.346   2.947   4.257  0.8850 -0.9444 -0.0426
   64PVA    H3910775   7.427   2.918   4.324  1.4855 -1.6462 -1.0375
   64PVA     O710776   7.283   3.068   4.297  0.5689 -0.4682 -0.0799
   64PVA    H4010777   7.298   3.146   4.240  0.2315 -1.9535 -2.3237
   64PVA    C2110778   7.418   2.948   4.121  0.7185 -0.7102  0.7108
   64PVA    H4110779   7.336   2.913   4.057 -3.5319  1.4934  4.3075
   64PVA    H4210780   7.508   2.886   4.120  1.5496 -0.1268 -5.9361
   64PVA    C2210781   7.482   3.090   4.091  0.8395  0.1410 -0.3696
   64PVA    H4310782   7.412   3.167   4.060 -0.4412 -0.4176  1.0171
   64PVA    H4410783   7.521   3.133   4.185  0.1033 -0.4316  0.2112
   64PVA    C2310784   7.613   3.081   3.998 -0.1507 -0.3834 -0.4794
   64PVA    H4510785   7.580   3.040   3.901  1.8866 -2.2508 -0.4621
   64PVA     O810786   7.718   2.997   4.054  0.1694  0.1749  0.0835
   64PVA    H4610787   7.712   3.011   4.150  1.5333 -0.1132  0.2239
   64PVA    C2410788   7.660   3.233   3.974  0.2839  0.5887  0.5651
   64PVA    H4710789   7.580   3.294   4.019  1.6483  2.8669  0.0976
   64PVA    H4810790   7.758   3.246   4.023  1.2290 -4.8378  0.7256
   64PVA    C2510791   7.663   3.270   3.811  0.6960  1.1680  0.4450
   64PVA    H4910792   7.749   3.215   3.771  2.7046  1.8877  3.4458
   64PVA    H5010793   7.691   3.375   3.799  2.4040  0.8521  1.3421
   64PVA    C2610794   7.538   3.275   3.730 -0.1728  0.5840  0.5350
   64PVA    H5110795   7.487   3.367   3.761 -0.1238  0.4796  0.9307
   64PVA     O910796   7.456   3.156   3.749  0.0464 -0.3033 -0.8823
   64PVA    H5210797   7.376   3.185   3.796  1.5073  1.4736  0.6716
   64PVA    C2710798   7.572   3.304   3.583 -0.6794 -0.8168 -1.0396
   64PVA    H5310799   7.648   3.232   3.547 -0.0868  0.9052 -3.4754
   64PVA    H5410800   7.628   3.397   3.574 -0.3230 -1.0874 -1.6779
   64PVA    C2810801   7.460   3.313   3.491  0.7796 -0.5254  0.2413
   64PVA    H5510802   7.415   3.214   3.479  4.0456 -2.1231  0.0530
   64PVA    H5610803   7.380   3.382   3.518  3.4152  3.4368 -1.1107
   64PVA    C2910804   7.486   3.357   3.343 -0.0071  0.0969 -0.4329
   64PVA    H5710805   7.550   3.446   3.328  2.4249 -1.4926 -0.0174
   64PVA    O1010806   7.547   3.250   3.288 -0.5892  0.6727  0.2427
   64PVA    H5810807   7.630   3.225   3.331 -1.1509  1.4537  1.8697
   64PVA    C3010808   7.337   3.373   3.278  0.0176 -0.2644 -1.1711
   64PVA    H5910809   7.295   3.273   3.264 -0.2387 -0.7937  2.4838
   64PVA    H6010810   7.261   3.409   3.348 -1.9332  0.4733 -3.5003
   64PVA    C3110811   7.324   3.471   3.153 -0.1830 -1.1622  0.1273
   64PVA    H6110812   7.386   3.431   3.072  1.0412  0.5780  0.1478
   64PVA    H6210813   7.378   3.562   3.183 -1.1580 -1.0103  1.5058
   64PVA    C3210814   7.177   3.493   3.101  0.5998  0.5095 -0.4351
   64PVA    H6310815   7.152   3.408   3.037 -0.7470 -2.2973  3.4590
   64PVA    O1110816   7.080   3.505   3.209 -0.6884 -0.0384 -1.2281
   64PVA    H6410817   6.989   3.530   3.185 -1.5801 -0.8376  1.0621
   64PVA    C3310818   7.176   3.607   3.004 -0.5630  1.6086 -1.1476
   64PVA    H6510819   7.103   3.598   2.923  1.5889 -1.5169 -2.9372
   64PVA    H6610820   7.270   3.596   2.949  1.6248 -2.6490  2.7256
   64PVA    C3410821   7.142   3.736   3.080  0.4535 -0.3972 -0.4560
   64PVA    H6710822   7.044   3.741   3.129  2.4548  3.7345  3.9417
   64PVA    H6810823   7.219   3.759   3.154  0.6894 -2.2103 -0.0931
   64PVA    C3510824   7.123   3.866   2.991 -0.0061  0.5171  0.7649
   64PVA    H6910825   7.021   3.891   3.019  0.1169 -2.0799  4.2237
   64PVA    O1210826   7.113   3.845   2.851 -0.3492  0.0641 -0.2096
   64PVA    H7010827   7.175   3.772   2.833  0.8972  0.5562  1.7301
   64PVA    C3610828   7.237   3.975   3.021 -0.1367 -0.3402  0.3758
   64PVA    H7110829   7.272   3.982   3.125  0.5395 -0.4437  0.1579
   64PVA    H7210830   7.322   3.937   2.964  1.6153 -2.4262  3.9945
   64PVA    C3710831   7.227   4.116   2.959  0.9273  0.1961  0.0523
   64PVA    H7310832   7.183   4.095   2.861 -2.2608 -1.9097  1.7484
   64PVA    H7410833   7.331   4.148   2.947  1.7341 -1.1413  2.7376
   64PVA    C3810834   7.138   4.207   3.039 -0.2288  0.3602  0.8830
   64PVA    H7510835   7.189   4.212   3.136  1.5944  1.9080 -0.0875
   64PVA    O1310836   7.005   4.145   3.046 -0.2858  0.4935 -0.9619
   64PVA    H7610837   6.969   4.153   2.956  2.6156 -0.8101 -2.3836
   64PVA    C3910838   7.141   4.360   2.999  0.2932  0.1102  0.0268
   64PVA    H7710839   7.088   4.367   2.904 -0.5803 -1.9725  0.3101
   64PVA    H7810840   7.242   4.398   2.979  1.2288 -1.8332  0.7951
   64PVA    C4010841   7.061   4.453   3.109 -0.2678  0.3892 -0.5881
   64PVA    H7910842   7.100   4.554   3.091  0.1371 -0.0523 -2.3646
   64PVA    H8010843   6.952   4.448   3.101 -0.4684  3.7075 -1.3404
   64PVA    C4110844   7.091   4.422   3.253  0.0985  0.9669  0.0493
   64PVA    H8110845   7.073   4.316   3.275 -2.6029  1.5183  0.8790
   64PVA    O1410846   7.220   4.457   3.283  0.0764 -0.4745  0.4750
   64PVA    H8210847   7.260   4.470   3.196  1.9520 -4.4953  0.4950
   64PVA    C4210848   6.987   4.502   3.345  0.6336  0.5179 -0.5716
   64PVA    H8310849   6.991   4.612   3.347  0.0361  0.5913 -2.0172
   64PVA    H8410850   6.887   4.473   3.311  0.0141  1.8237  0.0683
   64PVA    C4310851   7.012   4.464   3.493 -0.4950  0.4524 -0.0318
   64PVA    H8510852   7.095   4.531   3.517  0.0558 -1.3428  3.7304
   64PVA    H8610853   7.043   4.360   3.508 -2.2838 -0.0695  0.2918
   64PVA    C4410854   6.894   4.482   3.591 -1.0900  0.8227  1.1037
   64PVA    H8710855   6.871   4.587   3.568 -2.0120  0.1656 -1.3512
   64PVA    O1510856   6.792   4.408   3.548  0.7474  0.0084 -0.9382
   64PVA    H8810857   6.718   4.430   3.607  0.2666  0.9705 -1.8532
   64PVA    C4510858   6.921   4.473   3.739  0.3607  0.0838  0.2111
   64PVA    H8910859   6.839   4.431   3.799  1.6794 -1.0250  1.3142
   64PVA    H9010860   7.004   4.406   3.766  0.3376 -0.9566 -2.0700
   64PVA    C4610861   6.942   4.612   3.804 -0.3873 -0.0468 -0.2229
   64PVA    H9110862   6.924   4.687   3.726 -4.5892  0.8666  1.3571
   64PVA    H9210863   6.859   4.631   3.874  0.1320  0.5133  0.2499
   64PVA    C4710864   7.069   4.608   3.898 -1.4177 -0.6662  0.2421
   64PVA    H9310865   7.084   4.710   3.935  1.1526 -0.5315 -0.9756
   64PVA    O1610866   7.058   4.503   3.993  0.6328  0.2118  0.4486
   64PVA    H9410867   7.135   4.507   4.052 -0.1677 -0.2425  1.5754
   64PVA    C4810868   7.193   4.584   3.807 -0.2626  0.3978  0.0835
   64PVA    H9510869   7.184   4.488   3.755  1.1666  0.0373  0.4695
   64PVA    H9610870   7.167   4.659   3.731  0.5852 -1.1097 -1.7725
   64PVA    C4910871   7.328   4.615   3.864  0.6967  0.5170  0.0585
   64PVA    H9710872   7.322   4.703   3.931  0.9930 -0.5785  1.5819
   64PVA    H9810873   7.381   4.648   3.774  0.4749 -1.1127 -0.7013
   64PVA    C5010874   7.386   4.497   3.944 -0.4736  0.4555  0.5860
   64PVA    H9910875   7.346   4.403   3.904 -0.4515  0.6662  0.0603
   64PVA    O1710876   7.310   4.510   4.074 -0.4534 -0.2968  0.1071
   64PVA   H10010877   7.359   4.448   4.131  2.7197 -1.7158 -3.6551
   64PVA    C5110878   7.539   4.522   3.969  0.1436  0.2394  0.4584
   64PVA   H10110879   7.564   4.621   4.011  4.4178  1.3612 -3.7881
   64PVA   H10210880   7.594   4.562   3.882 -1.0294  2.1269  0.5330
   65PVA     C110881   6.038   3.230   6.089  0.9563  0.0196  0.0054
   65PVA     H110882   6.005   3.149   6.024  3.2910 -0.3474 -0.8070
   65PVA     H210883   5.950   3.271   6.141  0.3775 -0.0398 -0.9029
   65PVA     C210884   6.088   3.348   5.987  0.4390  0.8976  0.4594
   65PVA     H310885   6.145   3.429   6.034  3.3379 -0.4088 -0.5732
   65PVA     O110886   5.965   3.407   5.935 -0.3424 -0.3604 -0.7436
   65PVA     H410887   5.933   3.454   6.014  4.1189  2.3059 -0.2040
   65PVA     C310888   6.166   3.279   5.856  0.0641 -0.3660  0.9215
   65PVA     H510889   6.123   3.183   5.827 -1.8946  1.2032 -1.8818
   65PVA     H610890   6.265   3.253   5.894  0.5776  1.1148  0.6627
   65PVA     C410891   6.169   3.357   5.716  0.2349 -0.7118 -0.3181
   65PVA     H710892   6.069   3.382   5.680  0.6851  1.1808 -0.3492
   65PVA     H810893   6.204   3.458   5.739  0.3388 -1.6580  4.6521
   65PVA     C510894   6.235   3.269   5.604  0.3766  0.6714 -0.6064
   65PVA     H910895   6.324   3.214   5.638  0.2703 -1.5955 -3.6332
   65PVA     O210896   6.139   3.173   5.557 -0.7199  0.2020  0.0070
   65PVA    H1010897   6.200   3.097   5.549  0.1679  0.9481 -0.4955
   65PVA     C610898   6.263   3.368   5.484 -0.0918 -0.4794 -0.3602
   65PVA    H1110899   6.164   3.410   5.460  1.7827  2.6507 -3.6249
   65PVA    H1210900   6.317   3.460   5.512 -1.4160 -0.0597  0.9684
   65PVA     C710901   6.328   3.280   5.372  0.4763 -0.0273  0.5506
   65PVA    H1310902   6.254   3.203   5.348  2.3050 -2.6386  2.6899
   65PVA    H1410903   6.413   3.217   5.400  0.6121 -0.2040 -0.2415
   65PVA     C810904   6.369   3.375   5.261 -1.1674  0.5422  0.0026
   65PVA    H1510905   6.288   3.446   5.240 -1.9822  0.7011  3.1309
   65PVA     O310906   6.495   3.440   5.310 -0.1628  1.4717  0.3328
   65PVA    H1610907   6.495   3.402   5.399 -0.8186 -1.6989 -0.8786
   65PVA     C910908   6.415   3.308   5.138  0.3174  0.5284 -0.2710
   65PVA    H1710909   6.354   3.221   5.110 -1.5059  1.2764  1.2018
   65PVA    H1810910   6.516   3.271   5.159 -0.9289 -0.9499  4.2076
   65PVA    C1010911   6.391   3.402   5.011  0.4742  0.6962 -1.2047
   65PVA    H1910912   6.350   3.339   4.932  0.0714  0.3774 -0.7456
   65PVA    H2010913   6.314   3.479   5.025  0.4881  0.7406 -1.3775
   65PVA    C1110914   6.525   3.482   4.984  0.2942 -0.0584 -0.3109
   65PVA    H2110915   6.615   3.419   4.979  0.9771  0.9256 -0.7298
   65PVA     O410916   6.539   3.579   5.084  0.2876  0.4642  0.2899
   65PVA    H2210917   6.524   3.550   5.176  2.0973 -0.6956  0.2684
   65PVA    C1210918   6.540   3.557   4.848 -0.5189 -0.8748  0.3783
   65PVA    H2310919   6.521   3.493   4.761 -0.0526 -1.5987  0.7951
   65PVA    H2410920   6.462   3.634   4.851 -0.5588 -0.8605 -0.8632
   65PVA    C1310921   6.677   3.642   4.824 -1.4372  0.1532  0.3973
   65PVA    H2510922   6.758   3.571   4.803 -0.6877  1.3364 -0.8137
   65PVA    H2610923   6.699   3.702   4.914  2.5827  4.4215 -2.9415
   65PVA    C1410924   6.677   3.723   4.695  0.6395  0.0965  0.0821
   65PVA    H2710925   6.672   3.663   4.603 -2.8430  2.6055 -1.6023
   65PVA     O510926   6.563   3.805   4.683 -0.0170  0.2928 -0.7164
   65PVA    H2810927   6.587   3.896   4.707 -0.4254  0.3262 -0.4176
   65PVA    C1510928   6.812   3.801   4.686  0.3608 -0.2486  0.6270
   65PVA    H2910929   6.899   3.734   4.683  0.6144  0.0670  0.8908
   65PVA    H3010930   6.820   3.866   4.774  1.9785 -0.1590  0.4382
   65PVA    C1610931   6.804   3.882   4.556  0.1809  0.3618  1.0421
   65PVA    H3110932   6.732   3.843   4.483  0.2191  1.5134  0.3652
   65PVA    H3210933   6.755   3.976   4.583 -2.9222 -1.7806  3.8057
   65PVA    C1710934   6.944   3.906   4.509 -0.1259  0.2428 -0.2622
   65PVA    H3310935   7.000   3.812   4.501 -3.3876 -1.7581 -1.4394
   65PVA     O610936   7.005   4.004   4.596 -0.1396  0.1255 -0.1106
   65PVA    H3410937   7.040   3.960   4.676  0.5842  0.7834 -0.0496
   65PVA    C1810938   6.964   3.934   4.356  0.6611  0.7027  1.0569
   65PVA    H3510939   6.927   4.038   4.348 -3.3749  0.1360  6.3959
   65PVA    H3610940   6.920   3.857   4.292  1.6952 -1.9917  3.3940
   65PVA    C1910941   7.110   3.942   4.318 -1.1841  0.2118 -0.5873
   65PVA    H3710942   7.161   3.848   4.341 -0.3994  0.5993 -0.7061
   65PVA    H3810943   7.140   4.019   4.391  2.5832 -2.0730  0.5391
   65PVA    C2010944   7.125   3.986   4.167  0.2222 -0.6997 -0.3601
   65PVA    H3910945   7.023   4.004   4.131 -0.4944 -0.4320  1.6494
   65PVA     O710946   7.196   3.880   4.112 -0.0745  0.5451  0.6974
   65PVA    H4010947   7.126   3.812   4.111  1.7307 -1.4008  0.3682
   65PVA    C2110948   7.207   4.115   4.130  0.0209 -0.4223  0.8876
   65PVA    H4110949   7.316   4.106   4.140  1.0365  4.1835 -2.5025
   65PVA    H4210950   7.191   4.199   4.199 -0.5056  0.1643  0.0758
   65PVA    C2210951   7.180   4.177   3.992 -0.4857 -0.2055  0.7125
   65PVA    H4310952   7.083   4.226   3.974 -0.0394 -0.2576 -2.4115
   65PVA    H4410953   7.244   4.267   3.996  0.7968 -1.0796  0.4609
   65PVA    C2310954   7.230   4.099   3.865 -0.5204  0.8207  0.1841
   65PVA    H4510955   7.333   4.066   3.879  0.5346  4.1105  1.0825
   65PVA     O810956   7.145   3.983   3.832 -0.5775 -0.8030 -0.6987
   65PVA    H4610957   7.135   3.938   3.918  0.3023  1.4221  0.6638
   65PVA    C2410958   7.225   4.176   3.729  1.7270 -0.2165  0.5843
   65PVA    H4710959   7.149   4.135   3.661  1.1493 -1.0394  1.6880
   65PVA    H4810960   7.201   4.282   3.743  1.2138 -0.2413 -0.0377
   65PVA    C2510961   7.367   4.191   3.667 -1.1409  0.7717 -0.4365
   65PVA    H4910962   7.429   4.257   3.728 -1.7681  0.1636  0.8970
   65PVA    H5010963   7.404   4.089   3.651 -0.0096  0.6489  2.4483
   65PVA    C2610964   7.369   4.253   3.529  0.6901 -0.1208 -0.4323
   65PVA    H5110965   7.290   4.197   3.476  1.5524 -3.8960  1.8511
   65PVA     O910966   7.352   4.398   3.521  0.8154 -0.3385  0.1551
   65PVA    H5210967   7.317   4.424   3.434 -2.8090 -0.8005  1.2995
   65PVA    C2710968   7.500   4.222   3.455  0.1324 -0.2173  1.9934
   65PVA    H5310969   7.513   4.113   3.465 -0.5908 -0.3536  1.5719
   65PVA    H5410970   7.594   4.273   3.478  0.5346  0.4896 -0.8484
   65PVA    C2810971   7.494   4.262   3.304  0.5904 -0.6540 -0.6701
   65PVA    H5510972   7.405   4.211   3.265 -0.1202 -0.7361  0.9977
   65PVA    H5610973   7.488   4.370   3.282  2.2254 -0.8699 -2.4552
   65PVA    C2910974   7.618   4.210   3.230 -0.0599  0.3867 -0.0161
   65PVA    H5710975   7.713   4.248   3.271 -1.4328  1.0554  2.7454
   65PVA    O1010976   7.623   4.072   3.254 -1.4751 -0.2166  0.1610
   65PVA    H5810977   7.565   4.051   3.329 -2.7156 -0.4599 -0.8307
   65PVA    C3010978   7.626   4.252   3.077 -0.7239  0.2446 -0.0826
   65PVA    H5910979   7.560   4.178   3.031  2.6656 -1.7414 -2.1579
   65PVA    H6010980   7.576   4.348   3.058 -0.0404  0.4016 -1.1974
   65PVA    C3110981   7.758   4.248   3.005 -0.6573  0.2279  0.2127
   65PVA    H6110982   0.062   4.207   3.079  0.5292 -0.3539 -1.1586
   65PVA    H6210983   0.004   4.353   2.977  2.9307  0.2091  1.1528
   65PVA    C3210984   7.755   4.155   2.884 -0.0279  0.1733  0.6588
   65PVA    H6310985   7.723   4.055   2.915  1.6332  0.3135  3.1369
   65PVA    O1110986   7.654   4.203   2.798  1.2154  0.3603 -0.1993
   65PVA    H6410987   7.679   4.292   2.769  2.7746  0.4110  1.1949
   65PVA    C3310988   0.130   4.147   2.797  0.3522  0.0879  0.2330
   65PVA    H6510989   0.207   4.124   2.871  0.5361 -1.2069 -0.3250
   65PVA    H6610990   0.164   4.243   2.759  1.5308  0.4187  1.9866
   65PVA    C3410991   0.135   4.031   2.694  0.0698  0.2163 -0.2553
   65PVA    H6710992   0.243   4.013   2.680  0.0443 -3.2356  2.5844
   65PVA    H6810993   0.079   3.943   2.728 -0.4380  1.2124  1.6357
   65PVA    C3510994   0.040   4.054   2.569 -0.0095 -1.5961 -0.5224
   65PVA    H6910995   7.705   4.078   2.604  1.1527  5.0987 -0.5314
   65PVA    O1210996   0.083   4.168   2.497 -0.5056  0.7033  1.7062
   65PVA    H7010997   0.011   4.188   2.435 -2.4095  1.1366  3.9322
   65PVA    C3610998   0.047   3.920   2.481  0.9373 -0.1259  0.0969
   65PVA    H7110999   0.150   3.884   2.468 -0.1812 -3.5214 -0.2692
   65PVA    H7211000   7.750   3.848   2.535  4.5292 -3.8091 -0.1932
   65PVA    C3711001   7.759   3.950   2.335  0.3971 -0.0344  0.0190
   65PVA    H7311002   0.022   4.045   2.288 -2.8505  0.2322 -1.7012
   65PVA    H7411003   7.651   3.967   2.335  0.1778 -1.1202  1.8108
   65PVA    C3811004   0.023   3.835   2.237  0.5437  0.3112  0.6833
   65PVA    H7511005   0.126   3.798   2.237 -0.0808 -1.5428 -0.6039
   65PVA    O1311006   7.702   3.726   2.273 -0.2478  0.6220  0.8639
   65PVA    H7611007   7.671   3.705   2.183  0.2293  2.3684  0.2582
   65PVA    C3911008   0.006   3.871   2.088 -0.5941  0.2170  1.1472
   65PVA    H7711009   0.090   3.940   2.071 -1.5365  0.5687 -3.2718
   65PVA    H7811010   7.691   3.933   2.048  1.3840  1.0636 -1.8675
   65PVA    C4011011   0.015   3.755   1.979 -1.5393 -0.3657 -0.0733
   65PVA    H7911012   7.709   3.673   1.989  1.4282 -3.0029  1.1702
   65PVA    H8011013   0.102   3.696   2.007 -1.4422 -0.2329 -0.0934
   65PVA    C4111014   0.016   3.810   1.830 -0.5138  0.6453  0.1339
   65PVA    H8111015   0.032   3.726   1.761  4.5246 -0.1576  1.8816
   65PVA    O1411016   0.124   3.896   1.808  0.4787 -0.4300  0.4409
   65PVA    H8211017   0.196   3.831   1.810 -2.7316 -4.3797  1.2112
   65PVA    C4211018   7.653   3.886   1.796 -0.8806  0.1458 -1.0589
   65PVA    H8311019   7.569   3.884   1.866 -1.7513  0.8107 -2.0445
   65PVA    H8411020   7.687   3.990   1.800  1.7552 -0.6764 -0.4463
   65PVA    C4311021   7.596   3.849   1.653  0.4811  0.8622  1.0904
   65PVA    H8511022   7.490   3.826   1.674  0.2844  2.2559  1.6905
   65PVA    H8611023   7.641   3.757   1.611  0.8494  1.2967  0.5189
   65PVA    C4411024   7.615   3.965   1.550  1.4771  0.4378 -0.0142
   65PVA    H8711025   7.553   3.931   1.466  0.5776 -3.3962  1.9682
   65PVA    O1511026   7.562   4.089   1.605  0.4908  0.3438  0.3699
   65PVA    H8811027   7.469   4.083   1.579 -0.1431  0.6674  2.4414
   65PVA    C4511028   7.754   3.972   1.499 -0.3290 -0.0218 -0.0970
   65PVA    H8911029   7.744   3.909   1.410  2.2410 -1.6192  0.6580
   65PVA    H9011030   0.048   3.925   1.578 -0.1788  0.0446 -0.1717
   65PVA    C4611031   0.032   4.113   1.450 -0.3542  0.6402  0.6357
   65PVA    H9111032   7.728   4.179   1.397 -0.9606  0.4423  1.1618
   65PVA    H9211033   0.051   4.170   1.542  1.7167 -1.3300  1.5137
   65PVA    C4711034   0.161   4.101   1.369 -0.0716  0.3854  0.5945
   65PVA    H9311035   0.246   4.050   1.417  1.2003 -0.2043 -2.0943
   65PVA    O1611036   0.118   4.034   1.242 -0.3227  0.9602 -0.4056
   65PVA    H9411037   0.139   4.089   1.165  0.4900 -0.0766 -0.9537
   65PVA    C4811038   0.214   4.237   1.328  0.0236  0.5791  0.5760
   65PVA    H9511039   0.174   4.265   1.230  0.7150 -0.9504 -0.1831
   65PVA    H9611040   0.197   4.315   1.403 -2.0011  1.7244 -0.9576
   65PVA    C4911041   0.372   4.228   1.305 -0.3434 -0.6995 -0.7556
   65PVA    H9711042   0.412   4.155   1.233  0.7336 -0.2679 -0.6183
   65PVA    H9811043   0.410   4.201   1.404 -1.3157  3.7943  1.1355
   65PVA    C5011044   0.435   4.362   1.257  0.0259  0.1498 -0.4715
   65PVA    H9911045   0.380   4.412   1.176 -0.2463 -2.9947 -2.3985
   65PVA    O1711046   0.446   4.434   1.380 -0.1429 -0.0972 -0.4264
   65PVA   H10011047   0.436   4.371   1.454  3.7575 -3.5837 -2.4740
   65PVA    C5111048   0.575   4.343   1.188 -0.7671  0.4792  1.1661
   65PVA   H10111049   0.633   4.277   1.253 -1.0722  0.9363  1.9296
   65PVA   H10211050   0.616   4.444   1.201 -0.2576  0.2949  1.0235
   66PVA     C111051   0.966   4.455   4.244 -0.6453  0.7760  0.5218
   66PVA     H111052   0.978   4.387   4.329 -0.6455 -1.7911 -1.3949
   66PVA     H211053   1.053   4.432   4.180 -0.7948 -0.3965  0.7133
   66PVA     C211054   0.984   4.609   4.288 -0.8933 -0.9814 -0.7790
   66PVA     H311055   0.890   4.665   4.276 -1.5129 -2.3239 -2.7349
   66PVA     O111056   1.083   4.661   4.193  0.4960 -0.7059  0.9759
   66PVA     H411057   1.024   4.718   4.141  1.5336  0.2178  0.7747
   66PVA     C311058   1.040   4.629   4.436  0.0400  0.3198 -0.1770
   66PVA     H511059   1.144   4.596   4.434 -0.3435 -0.8944 -0.9456
   66PVA     H611060   1.000   4.551   4.502 -0.0548  0.7863  0.3306
   66PVA     C411061   1.026   4.776   4.495  0.3311 -0.0996  0.2482
   66PVA     H711062   1.057   4.848   4.418 -0.2441  1.4961  1.4554
   66PVA     H811063   0.925   4.805   4.525 -0.1515 -2.4010  1.0424
   66PVA     C511064   1.118   4.815   4.610 -0.4828 -0.7260  0.0337
   66PVA     H911065   1.087   4.745   4.689 -3.4826 -1.1006 -1.3139
   66PVA     O211066   1.252   4.791   4.575 -0.2493  0.9102 -0.1272
   66PVA    H1011067   1.251   4.697   4.552 -0.5569  1.2446 -1.6129
   66PVA     C611068   1.090   4.958   4.659  0.0899 -0.3500 -0.0949
   66PVA    H1111069   1.072   5.035   4.583 -1.4685 -1.4225 -0.8437
   66PVA    H1211070   0.993   4.958   4.710 -0.6516  2.0838 -1.3395
   66PVA     C711071   1.193   5.027   4.752  0.3012 -0.0423 -0.0012
   66PVA    H1311072   1.278   5.073   4.700  0.5605 -0.4002  0.1085
   66PVA    H1411073   1.233   4.931   4.784  0.7708 -0.6588 -2.2613
   66PVA     C811074   1.138   5.120   4.863  0.0865 -0.7217 -1.1216
   66PVA    H1511075   1.052   5.176   4.823  0.3746 -1.4355 -2.7992
   66PVA     O311076   1.088   5.035   4.972  0.2201 -0.0588 -0.1514
   66PVA    H1611077   1.006   5.064   5.016 -1.3583 -4.2001  0.0537
   66PVA     C911078   1.246   5.210   4.929 -0.0520  0.2669  0.1345
   66PVA    H1711079   1.308   5.261   4.855 -1.8212 -1.0634 -2.4372
   66PVA    H1811080   1.324   5.163   4.989  2.9503  1.9643 -2.1935
   66PVA    C1011081   1.178   5.324   5.015  0.0953  0.0938 -0.0840
   66PVA    H1911082   1.102   5.377   4.956 -2.1864 -3.3624 -0.5749
   66PVA    H2011083   1.126   5.288   5.104 -0.5450  4.2667  1.4463
   66PVA    C1111084   1.266   5.435   5.072 -0.0950  0.2931 -0.2032
   66PVA    H2111085   1.363   5.411   5.027 -0.2129 -1.2727  0.3339
   66PVA     O411086   1.232   5.569   5.028 -0.3910  0.1512 -0.7059
   66PVA    H2211087   1.254   5.584   4.935  0.7897  1.6694 -0.2321
   66PVA    C1211088   1.284   5.444   5.221  0.0598  0.1201 -0.4142
   66PVA    H2311089   1.219   5.524   5.259 -0.9653 -1.4393  1.2176
   66PVA    H2411090   1.261   5.345   5.259  2.4414 -1.6309 -3.0728
   66PVA    C1311091   1.426   5.468   5.283  0.0755 -0.5406 -0.4448
   66PVA    H2511092   1.459   5.571   5.263  1.6673 -1.1951 -1.3912
   66PVA    H2611093   1.487   5.398   5.226 -2.8908 -1.8640 -2.2697
   66PVA    C1411094   1.444   5.451   5.437 -0.5685 -0.2909 -0.3512
   66PVA    H2711095   1.384   5.370   5.479 -1.0108 -0.8755 -2.0122
   66PVA     O511096   1.390   5.576   5.481  1.1937 -0.1980  0.0432
   66PVA    H2811097   1.315   5.577   5.420  1.2559 -3.6262 -0.2503
   66PVA    C1511098   1.585   5.429   5.481 -0.5412 -0.0382 -0.2862
   66PVA    H2911099   1.660   5.468   5.412 -0.2997  0.9214  0.5009
   66PVA    H3011100   1.585   5.319   5.477  0.0922 -0.1143  1.3135
   66PVA    C1611101   1.615   5.457   5.636 -0.0364 -0.0755  0.2379
   66PVA    H3111102   1.538   5.404   5.693 -1.8397  4.0929  2.1460
   66PVA    H3211103   1.586   5.562   5.648  0.7987  0.5947 -2.8513
   66PVA    C1711104   1.761   5.441   5.690  1.1114 -0.4649  1.2739
   66PVA    H3311105   1.775   5.548   5.710 -4.8553  0.5661  1.9376
   66PVA     O611106   1.857   5.389   5.600 -0.5089 -0.0049  0.3883
   66PVA    H3411107   1.934   5.446   5.584 -2.0001  1.9761 -0.1090
   66PVA    C1811108   1.784   5.364   5.822  0.3431  0.3329  0.3310
   66PVA    H3511109   1.748   5.408   5.915  1.0645 -0.9027  1.2286
   66PVA    H3611110   1.722   5.273   5.829 -2.3805  2.0983  0.6765
   66PVA    C1911111   1.934   5.334   5.861  0.1448  0.6700 -0.2941
   66PVA    H3711112   1.995   5.420   5.891  1.6908 -0.0104 -1.3669
   66PVA    H3811113   1.985   5.282   5.779  0.3962 -3.6280  2.2634
   66PVA    C2011114   1.929   5.246   5.989 -0.6915 -0.1363  1.5675
   66PVA    H3911115   1.837   5.188   5.977 -0.5336 -0.1077 -0.0207
   66PVA     O711116   1.913   5.335   6.100  0.0589  0.5397  0.5731
   66PVA    H4011117   1.997   5.328   6.149 -0.6653 -3.9845  1.6091
   66PVA    C2111118   2.064   5.172   5.984 -0.4757  1.0299 -0.0337
   66PVA    H4111119   2.153   5.230   5.958  0.0509  0.2918  0.1149
   66PVA    H4211120   2.055   5.120   5.887 -1.9038 -3.1549  2.0694
   66PVA    C2211121   2.111   5.064   6.089  0.3941 -0.5132 -0.2108
   66PVA    H4311122   2.029   4.995   6.064 -2.4869  3.4441 -3.1104
   66PVA    H4411123   2.200   5.020   6.043 -0.0135 -0.3564 -1.1797
   66PVA    C2311124   2.139   5.104   6.237  0.4688  0.6906  0.3454
   66PVA    H4511125   2.211   5.186   6.224  0.8880  0.3258  0.3489
   66PVA     O811126   2.013   5.135   6.284 -0.1859 -0.0335 -0.2249
   66PVA    H4611127   1.970   5.174   6.206  0.0641 -0.9296 -0.8241
   66PVA    C2411128   2.213   4.984   6.307  0.5019 -0.2734 -1.1458
   66PVA    H4711129   2.309   4.946   6.270  0.2134 -2.3053  0.0391
   66PVA    H4811130   2.137   4.905   6.310 -1.2473  1.3802  0.9392
   66PVA    C2511131   2.250   5.021   6.450  0.6746  0.3732 -0.6114
   66PVA    H4911132   2.159   5.009   6.511  0.7850  0.2242 -0.4738
   66PVA    H5011133   2.258   5.130   6.453 -4.3080  0.9397  1.2938
   66PVA    C2611134   2.364   4.948   6.522 -0.5015  1.4244 -0.4713
   66PVA    H5111135   2.346   4.841   6.509 -1.5975  1.4621  0.5337
   66PVA     O911136   2.494   4.990   6.482  0.2815 -0.4460  0.4507
   66PVA    H5211137   2.492   4.946   6.395  0.1124 -2.1780  1.3079
   66PVA    C2711138   2.354   4.966   6.674  0.4845  0.0884  0.0465
   66PVA    H5311139   2.249   4.977   6.702  0.7621 -0.2691  1.2877
   66PVA    H5411140   2.404   5.062   6.694 -4.2110  2.3118  2.7673
   66PVA    C2811141   2.432   4.849   6.751 -0.5110 -0.0026  0.2786
   66PVA    H5511142   2.413   4.758   6.692  4.2389 -1.1580  0.1264
   66PVA    H5611143   2.541   4.860   6.753 -0.2897 -0.6906 -2.7635
   66PVA    C2911144   2.360   4.837   6.892 -1.0002  0.7453  0.4655
   66PVA    H5711145   2.252   4.848   6.876 -1.3247 -0.1886  1.9152
   66PVA    O1011146   2.390   4.942   6.976 -0.4568 -0.3956 -0.4844
   66PVA    H5811147   2.469   4.991   6.950 -1.3572  1.2917 -0.1915
   66PVA    C3011148   2.385   4.700   6.960 -1.4777  0.5513 -0.1597
   66PVA    H5911149   2.337   4.615   6.912 -1.9330 -2.2802  4.6654
   66PVA    H6011150   2.490   4.675   6.936 -2.0966  0.9077 -3.9317
   66PVA    C3111151   2.375   4.696   7.119 -0.5340 -0.7949  0.9172
   66PVA    H6111152   2.452   4.762   7.161  0.5395  0.2622 -2.3642
   66PVA    H6211153   2.399   4.592   7.145  0.1219 -0.5144  1.4661
   66PVA    C3211154   2.236   4.728   7.163  0.1977 -0.0298 -0.2253
   66PVA    H6311155   2.213   4.835   7.157 -2.1161 -0.4398  0.2983
   66PVA    O1111156   2.143   4.653   7.089  0.2737 -0.7792 -0.2441
   66PVA    H6411157   2.207   4.657   7.015 -1.3539  4.4388 -1.8687
   66PVA    C3311158   2.214   4.669   7.309 -0.4652 -0.6165  0.8320
   66PVA    H6511159   2.304   4.683   7.369  0.7049  1.5158 -1.2809
   66PVA    H6611160   2.196   4.561   7.316 -0.3548 -1.0414 -3.2264
   66PVA    C3411161   2.096   4.739   7.387 -0.0619 -0.0630  1.3643
   66PVA    H6711162   2.121   4.846   7.384  0.3479 -0.1293 -1.8409
   66PVA    H6811163   1.997   4.741   7.341 -0.2022  2.3654  1.6451
   66PVA    C3511164   2.099   4.699   7.535  0.0983  0.1397 -0.3986
   66PVA    H6911165   2.197   4.671   7.577 -1.7642 -1.7289  3.1116
   66PVA    O1211166   2.053   4.810   7.612 -0.7320 -0.8036 -0.9237
   66PVA    H7011167   2.043   4.782   7.704 -0.4800 -3.4961 -1.6510
   66PVA    C3611168   2.018   4.589   7.582  0.3673 -0.0512 -0.5202
   66PVA    H7111169   2.028   4.505   7.512  2.0713  1.4738 -2.2033
   66PVA    H7211170   1.909   4.600   7.586  0.5675  2.6217  2.9329
   66PVA    C3711171   2.055   4.542   7.725  0.0271 -0.6998 -0.7601
   66PVA    H7311172   2.094   4.443   7.698  0.4236 -2.1069  4.0393
   66PVA    H7411173   2.143   4.588   7.771  0.0501 -1.6775  0.2405
   66PVA    C3811174   1.928   4.531   7.824 -0.5755 -0.3155  0.5203
   66PVA    H7511175   1.838   4.483   7.783 -0.1681 -2.0837  1.6103
   66PVA    O1311176   1.888   4.655   7.878  0.8960  0.7996 -1.3843
   66PVA    H7611177   1.794   4.647   7.902  1.4492  1.8868  1.5322
   66PVA    C3911178   1.982   4.452   7.948  1.1370  0.8258 -0.2081
   66PVA    H7711179   2.074   4.486   7.996  0.2901  1.6941  0.8646
   66PVA    H7811180   1.999   4.348   7.918 -3.4385 -0.2991  0.2831
   66PVA    C4011181   1.889   4.452   8.072  0.4185 -0.7580  0.8002
   66PVA    H7911182   1.917   4.548   0.019 -0.3324  0.1360 -0.5752
   66PVA    H8011183   1.791   4.473   8.025  2.6053  0.8348 -3.6557
   66PVA    C4111184   1.900   4.331   0.076  0.2481  0.3747 -0.1182
   66PVA    H8111185   1.856   4.238   0.040 -1.3089  1.6557 -1.7230
   66PVA    O1411186   2.046   4.304   0.099 -0.0226 -0.9271  0.1448
   66PVA    H8211187   2.094   4.388   0.103  3.6154 -2.5613 -2.5122
   66PVA    C4211188   1.827   4.351   0.202 -0.2915  0.2948  0.2049
   66PVA    H8311189   1.875   4.308   0.291  0.5813 -0.9508 -0.8237
   66PVA    H8411190   1.807   4.456   0.229  1.7592  1.1338 -1.3139
   66PVA    C4311191   1.679   4.291   0.182 -0.4115 -1.2002 -0.0651
   66PVA    H8511192   1.678   4.196   0.129  0.3382  1.4636 -5.5376
   66PVA    H8611193   1.644   4.350   0.096  1.2234 -0.1157 -0.0416
   66PVA    C4411194   1.604   4.305   0.316 -0.0473 -0.3413 -0.1918
   66PVA    H8711195   1.598   4.410   0.347 -1.4108 -0.4654  0.0497
   66PVA    O1511196   1.682   4.248   0.430  0.2509  0.2250 -0.3741
   66PVA    H8811197   1.613   4.189   0.464 -2.2274  0.9926 -3.5390
   66PVA    C4511198   1.454   4.270   0.319  0.2118  0.8986 -0.5113
   66PVA    H8911199   1.432   4.204   0.234 -1.8948  1.0929 -0.1558
   66PVA    H9011200   1.407   4.368   0.306 -5.2078 -1.3598 -0.3627
   66PVA    C4611201   1.393   4.208   0.451 -0.7147 -0.3253 -0.0115
   66PVA    H9111202   1.440   4.109   0.459  0.4572  0.1693 -0.4483
   66PVA    H9211203   1.441   4.270   0.528  0.2568  3.4626 -3.3043
   66PVA    C4711204   1.244   4.186   0.458  1.1645  0.5981  0.2486
   66PVA    H9311205   1.242   4.076   0.455 -2.0287  0.4927  1.8566
   66PVA    O1611206   1.171   4.233   0.349 -0.9896 -0.2628 -0.6378
   66PVA    H9411207   1.179   4.160   0.286 -3.4240 -1.4378  0.2995
   66PVA    C4811208   1.175   4.218   0.598  0.0119 -1.1439  0.0103
   66PVA    H9511209   1.231   4.174   0.682 -0.1754  0.8467  1.2446
   66PVA    H9611210   1.184   4.325   0.618  3.9689 -1.2633 -0.2284
   66PVA    C4911211   1.037   4.159   0.620  0.0748 -0.0828  0.7098
   66PVA    H9711212   0.975   4.149   0.530 -3.1113  0.4919  2.6765
   66PVA    H9811213   1.054   4.057   0.658 -3.9131 -1.2656 -0.2340
   66PVA    C5011214   0.974   4.239   0.735 -0.0683  0.1469 -0.4925
   66PVA    H9911215   0.973   4.341   0.696 -3.6187  0.3459 -0.2566
   66PVA    O1711216   1.039   4.243   0.866  0.0357 -0.1238  0.2691
   66PVA   H10011217   1.018   4.158   0.910 -0.0357 -1.7556 -2.6863
   66PVA    C5111218   0.823   4.231   0.742 -0.5815  0.1616  1.0598
   66PVA   H10111219   0.815   4.141   0.805  2.9979 -0.6372  0.5893
   66PVA   H10211220   0.785   4.216   0.640 -1.7007  2.2789  1.1138
   67PVA     C111221   0.776   4.331   3.836 -0.3255  0.6702 -0.2390
   67PVA     H111222   0.842   4.418   3.843  0.6232 -0.1812  2.2110
   67PVA     H211223   0.835   4.252   3.787 -1.6964 -0.2081 -0.5346
   67PVA     C211224   0.652   4.348   3.743 -1.1915 -1.0935 -0.0205
   67PVA     H311225   0.560   4.381   3.793 -0.9590  2.2152 -1.4668
   67PVA     O111226   0.622   4.223   3.672 -0.3978  0.1232 -0.4808
   67PVA     H411227   0.525   4.218   3.670 -0.3530 -0.8829 -0.5453
   67PVA     C311228   0.693   4.459   3.641  0.6115 -0.1874 -0.0643
   67PVA     H511229   0.732   4.414   3.549  0.8539 -1.8033  0.8012
   67PVA     H611230   0.766   4.526   3.688 -3.1581  1.0857  4.8400
   67PVA     C411231   0.570   4.543   3.609 -0.2280 -0.2425 -0.3457
   67PVA     H711232   0.540   4.593   3.702  0.8071  2.0215 -1.1562
   67PVA     H811233   0.481   4.481   3.591 -1.3536  0.6477  1.7808
   67PVA     C511234   0.588   4.642   3.487 -0.7739  0.2724 -2.1126
   67PVA     H911235   0.599   4.586   3.393  1.6498  3.1763 -3.7182
   67PVA     O211236   0.696   4.724   3.509 -0.3046  0.8833  0.1745
   67PVA    H1011237   0.780   4.681   3.530  0.3752  1.8193 -0.5813
   67PVA     C611238   0.469   4.739   3.479  0.1126  1.0775 -0.0995
   67PVA    H1111239   0.486   4.833   3.532 -2.0687  1.0964  0.6628
   67PVA    H1211240   0.375   4.699   3.519 -0.8672  1.1816 -2.1713
   67PVA     C711241   0.451   4.772   3.329 -0.6785 -0.4902  0.1171
   67PVA    H1311242   0.551   4.808   3.304 -1.5454  0.8930 -1.5945
   67PVA    H1411243   0.443   4.681   3.268 -2.4420 -0.1359 -0.2603
   67PVA     C811244   0.346   4.876   3.294  0.0037  0.0917  1.1242
   67PVA    H1511245   0.354   4.956   3.369 -1.8920 -0.2926  1.8039
   67PVA     O311246   0.393   4.939   3.179 -0.3453 -0.3186 -0.6356
   67PVA    H1611247   0.481   4.980   3.184  1.7037 -4.3311 -0.4587
   67PVA     C911248   0.191   4.827   3.284 -0.8670 -0.1580  0.0164
   67PVA    H1711249   0.213   4.729   3.328 -2.4586  0.2630  1.9317
   67PVA    H1811250   0.153   4.809   3.183  2.3565  0.4451 -1.4170
   67PVA    C1011251   0.091   4.893   3.392  0.6161  0.7755 -0.3991
   67PVA    H1911252   0.071   4.996   3.359 -1.8580 -0.0931 -1.8383
   67PVA    H2011253   0.121   4.876   3.496  2.5222  3.8513 -0.3022
   67PVA    C1111254   7.722   4.819   3.376  0.1024  0.0917 -0.5021
   67PVA    H2111255   7.699   4.801   3.271  0.6064 -0.1807 -0.5668
   67PVA     O411256   7.728   4.693   3.434 -0.7704 -0.4294  0.0620
   67PVA    H2211257   7.720   4.696   3.531 -1.4711  2.5081  0.0148
   67PVA    C1211258   7.608   4.904   3.451 -0.7481  0.4906 -0.2831
   67PVA    H2311259   7.642   4.903   3.555  0.4447 -2.9467 -0.5803
   67PVA    H2411260   7.608   5.009   3.418  0.0715 -0.0114 -2.0010
   67PVA    C1311261   7.471   4.841   3.457  0.0840  0.5338  0.4762
   67PVA    H2511262   7.464   4.773   3.543  1.1208  2.2023  1.9564
   67PVA    H2611263   7.449   4.799   3.358  1.2961  3.8338 -1.3514
   67PVA    C1411264   7.374   4.958   3.455  1.7497 -0.4621 -0.3811
   67PVA    H2711265   7.392   5.026   3.371  1.6108 -2.3749 -2.0587
   67PVA     O511266   7.375   5.010   3.581 -0.1092  0.1185 -0.2850
   67PVA    H2811267   7.360   4.946   3.653 -0.8491  0.9880  0.3526
   67PVA    C1511268   7.225   4.909   3.440  0.5002  0.3988 -0.0399
   67PVA    H2911269   7.177   4.894   3.538  1.8407  3.2643  1.1737
   67PVA    H3011270   7.222   4.808   3.399 -0.6406  0.9165 -1.3095
   67PVA    C1611271   7.134   4.987   3.351  0.2663 -0.1692 -0.8102
   67PVA    H3111272   7.190   4.989   3.256  2.9072  2.2705  0.6510
   67PVA    H3211273   7.045   4.923   3.345  2.1353 -2.7918 -3.6213
   67PVA    C1711274   7.105   5.135   3.400 -0.8096 -0.8709 -0.2426
   67PVA    H3311275   7.069   5.122   3.503  0.7331 -3.7199  0.0552
   67PVA     O611276   7.226   5.217   3.400  0.3256 -0.0716  0.0646
   67PVA    H3411277   7.269   5.235   3.486 -1.2493 -0.0417  0.8784
   67PVA    C1811278   6.998   5.205   3.328  0.6485 -0.0040 -0.6371
   67PVA    H3511279   7.033   5.211   3.224  2.8787 -0.8058  0.0220
   67PVA    H3611280   6.908   5.143   3.336  1.5399 -1.0242  4.5226
   67PVA    C1911281   6.965   5.352   3.353 -0.4052 -0.1929 -0.1410
   67PVA    H3711282   7.026   5.427   3.300  2.0477 -0.3807  2.1829
   67PVA    H3811283   6.867   5.368   3.308  0.1850  1.9336 -0.8028
   67PVA    C2011284   6.956   5.386   3.494 -0.5762 -0.5239 -0.3227
   67PVA    H3911285   7.036   5.340   3.553 -0.9232 -2.8198 -1.4932
   67PVA     O711286   6.841   5.339   3.560  0.1453  0.0582 -0.5536
   67PVA    H4011287   6.800   5.400   3.623 -1.8313  0.4281 -2.0813
   67PVA    C2111288   6.970   5.547   3.526 -0.2108  0.9075  1.0440
   67PVA    H4111289   6.947   5.571   3.631 -2.0347  1.0973  0.6299
   67PVA    H4211290   6.900   5.586   3.451  0.1936 -0.9233 -0.3436
   67PVA    C2211291   7.108   5.611   3.493 -0.7298 -0.8468  0.2849
   67PVA    H4311292   7.128   5.604   3.385 -1.6746  1.0159 -0.0461
   67PVA    H4411293   7.116   5.719   3.511  2.4912 -0.2484 -3.3176
   67PVA    C2311294   7.228   5.555   3.573  0.4238 -0.0647 -0.5036
   67PVA    H4511295   7.236   5.447   3.551  2.3887  0.0945 -0.7657
   67PVA     O811296   7.222   5.580   3.716  0.2893  0.3764  1.6206
   67PVA    H4611297   7.297   5.529   3.753  3.0385  0.2570 -3.2173
   67PVA    C2411298   7.351   5.621   3.525  0.6194  0.3235 -0.4474
   67PVA    H4711299   7.375   5.711   3.583  1.1822 -0.5966  0.7953
   67PVA    H4811300   7.355   5.642   3.418 -0.0849 -1.5245 -0.8824
   67PVA    C2511301   7.472   5.518   3.537 -0.7304  0.3883  0.0444
   67PVA    H4911302   7.554   5.578   3.495  1.0599 -1.6521  0.4540
   67PVA    H5011303   7.444   5.434   3.473  0.0901  1.8654 -2.4018
   67PVA    C2611304   7.499   5.466   3.688  0.2446 -0.0279  0.6194
   67PVA    H5111305   7.490   5.545   3.764  3.5257 -0.6250  1.8227
   67PVA     O911306   7.404   5.360   3.702  0.8246  0.4245  0.6069
   67PVA    H5211307   7.409   5.294   3.631 -5.6679  0.7566 -0.6985
   67PVA    C2711308   7.648   5.402   3.684 -0.5495 -0.4232  0.2789
   67PVA    H5311309   7.647   5.341   3.593 -1.5806 -3.1594  1.9948
   67PVA    H5411310   7.665   5.333   3.767 -3.3450 -4.0263 -1.8035
   67PVA    C2811311   7.757   5.509   3.675 -0.5330  0.1436 -1.3498
   67PVA    H5511312   0.090   5.470   3.645  0.7073  0.4000  1.8871
   67PVA    H5611313   7.717   5.595   3.620 -1.4802  0.6183  0.0177
   67PVA    C2911314   0.028   5.580   3.804 -0.5386  0.7857  0.5953
   67PVA    H5711315   7.703   5.637   3.827 -2.1275 -1.1115 -0.6307
   67PVA    O1011316   0.129   5.663   3.773 -0.4468 -0.3362 -0.2314
   67PVA    H5811317   0.213   5.615   3.790  0.8116  2.4662  2.5914
   67PVA    C3011318   0.082   5.478   3.912 -0.5198  0.2346 -0.9342
   67PVA    H5911319   7.765   5.414   3.945 -2.4578  4.2241  2.9893
   67PVA    H6011320   0.167   5.416   3.881  0.6411  0.2265  1.8695
   67PVA    C3111321   0.112   5.539   4.053 -0.5105 -0.0026  0.0689
   67PVA    H6111322   0.023   5.574   4.107 -0.3317  2.0756 -0.8878
   67PVA    H6211323   0.158   5.637   4.036 -2.8974  1.0395 -0.7824
   67PVA    C3211324   0.200   5.450   4.145 -1.6447  0.5474 -1.5880
   67PVA    H6311325   0.277   5.409   4.078 -0.8433 -0.8809  0.1281
   67PVA    O1111326   0.105   5.346   4.215 -0.7055  0.7474 -0.5163
   67PVA    H6411327   0.021   5.396   4.217 -2.2739 -1.6988  2.2009
   67PVA    C3311328   0.258   5.526   4.254  0.0849 -0.0433  1.1506
   67PVA    H6511329   0.337   5.595   4.222  0.9738 -0.2735  2.7173
   67PVA    H6611330   0.317   5.467   4.326 -2.4498 -0.9898  2.5737
   67PVA    C3411331   0.163   5.616   4.342 -0.8263 -1.0548  0.4289
   67PVA    H6711332   0.116   5.702   4.292  1.4537  1.6729  2.6180
   67PVA    H6811333   0.079   5.551   4.371 -0.3314 -0.6065  3.1196
   67PVA    C3511334   0.227   5.693   4.462 -1.3710  1.2374 -0.2448
   67PVA    H6911335   0.303   5.622   4.497 -1.4850  1.5989  0.7507
   67PVA    O1211336   0.297   5.817   4.429 -0.3505 -0.1553 -0.8779
   67PVA    H7011337   0.389   5.817   4.460 -0.7017 -0.3143  0.2108
   67PVA    C3611338   0.142   5.732   4.580  0.2417 -1.3081  0.1671
   67PVA    H7111339   0.047   5.783   4.560  1.6508  2.5393  2.2187
   67PVA    H7211340   0.093   5.650   4.635 -1.5909 -0.0824  0.4208
   67PVA    C3711341   0.225   5.792   4.701  0.8226 -0.4056 -0.0973
   67PVA    H7311342   0.273   5.889   4.682 -0.8610  0.8537  1.6920
   67PVA    H7411343   0.308   5.727   4.730  2.0243  1.2402  0.2826
   67PVA    C3811344   0.150   5.814   4.826  0.9149 -1.0140  0.2667
   67PVA    H7511345   0.100   5.722   4.859  0.2061 -0.0346  2.0935
   67PVA    O1311346   0.045   5.906   4.794  0.3216 -0.7261  0.0555
   67PVA    H7611347   0.054   5.936   4.702  1.2039  0.5465  0.5286
   67PVA    C3911348   0.241   5.857   4.941  0.2273 -0.7826 -0.6677
   67PVA    H7711349   0.264   5.958   4.906  1.8232 -1.4432 -1.6358
   67PVA    H7811350   0.178   5.879   5.028 -0.7646 -1.8374 -1.0942
   67PVA    C4011351   0.349   5.755   4.983 -0.4254  0.4012  0.4405
   67PVA    H7911352   0.298   5.660   5.004  4.7089 -3.2356 -1.3330
   67PVA    H8011353   0.427   5.740   4.908 -1.4087  2.0982 -0.9933
   67PVA    C4111354   0.425   5.797   5.109 -0.0880  0.6281  0.3449
   67PVA    H8111355   0.340   5.810   5.177 -2.9256 -3.2931 -2.0274
   67PVA    O1411356   0.525   5.708   5.171 -0.1299 -0.3975 -0.5024
   67PVA    H8211357   0.489   5.618   5.177 -1.6278  0.2519  3.5054
   67PVA    C4211358   0.495   5.939   5.096  0.0457 -0.6377 -0.2539
   67PVA    H8311359   0.406   6.003   5.093  1.1823  0.9310 -2.3203
   67PVA    H8411360   0.542   5.963   5.001 -2.2121 -1.2785 -1.6072
   67PVA    C4311361   0.583   5.977   5.224 -0.2973 -0.3256  0.7077
   67PVA    H8511362   0.544   5.920   5.309  0.7084  0.0002  1.4044
   67PVA    H8611363   0.678   5.927   5.202 -1.8174 -2.8913 -0.3574
   67PVA    C4411364   0.594   6.128   5.253  0.9823  0.1946  1.0061
   67PVA    H8711365   0.493   6.171   5.245  1.6266  1.4175 -1.6072
   67PVA    O1511366   0.683   6.185   5.141  0.2664  0.0167 -0.1503
   67PVA    H8811367   0.771   6.164   5.178 -0.7328 -1.1489  1.6934
   67PVA    C4511368   0.654   6.155   5.396  0.5374  0.5935  0.4594
   67PVA    H8911369   0.754   6.111   5.388 -0.8819 -2.5848 -1.5543
   67PVA    H9011370   0.600   6.092   5.466 -0.7599  1.8108  0.6048
   67PVA    C4611371   0.651   6.290   5.438  0.1352  0.1708  0.1073
   67PVA    H9111372   0.555   6.320   5.481  2.5635  2.5912  4.5789
   67PVA    H9211373   0.676   6.346   5.347 -3.4146  2.6839  0.5252
   67PVA    C4711374   0.743   6.316   5.559  0.0923 -0.0062 -0.4917
   67PVA    H9311375   0.723   6.244   5.640  1.7674  1.8124  1.6995
   67PVA    O1611376   0.727   6.439   5.621  0.6742  0.1289 -0.2150
   67PVA    H9411377   0.653   6.482   5.574  0.3756 -1.6359 -1.4895
   67PVA    C4811378   0.900   6.309   5.522  0.8556 -0.2153  0.0933
   67PVA    H9511379   0.901   6.260   5.424  1.1077 -1.0219  0.4891
   67PVA    H9611380   0.944   6.408   5.506  0.8187 -0.6993 -4.0822
   67PVA    C4911381   0.979   6.224   5.628 -0.2430  0.1116  0.1382
   67PVA    H9711382   0.931   6.126   5.622  0.1722 -0.0473 -0.8047
   67PVA    H9811383   0.976   6.268   5.728  1.9146 -2.4306  1.4375
   67PVA    C5011384   1.135   6.206   5.612 -0.4362 -0.2372  0.0502
   67PVA    H9911385   1.163   6.307   5.644 -0.5549 -0.8917  2.4112
   67PVA    O1711386   1.179   6.177   5.484  0.6670  0.3193 -0.5651
   67PVA   H10011387   1.276   6.171   5.495  0.4986  1.0446  2.0053
   67PVA    C5111388   1.196   6.100   5.701 -2.2282 -0.1058 -0.2233
   67PVA   H10111389   1.306   6.104   5.697 -2.1441 -1.2610  0.4884
   67PVA   H10211390   1.167   5.997   5.675 -0.5436 -1.4527  2.7507
   68PVA     C111391   7.526   4.194   0.614  0.7043  0.1622 -0.2884
   68PVA     H111392   7.528   4.258   0.703  2.3937  1.7412 -1.3838
   68PVA     H211393   7.536   4.273   0.539  1.2767  0.0049 -0.3854
   68PVA     C211394   7.396   4.097   0.615  0.8206  0.6733  0.5949
   68PVA     H311395   7.401   4.050   0.516  0.6799 -0.7053  1.2209
   68PVA     O111396   7.410   3.989   0.714  0.0956 -0.7520 -0.4478
   68PVA     H411397   7.441   4.033   0.795  3.6004 -4.1383  0.3754
   68PVA     C311398   7.263   4.175   0.642  0.2614 -0.4119  0.4703
   68PVA     H511399   7.262   4.239   0.731  3.3543 -0.1544  0.4344
   68PVA     H611400   7.190   4.095   0.660  4.8175 -4.8946  1.2908
   68PVA     C411401   7.211   4.262   0.516 -0.7883 -0.0646 -1.0862
   68PVA     H711402   7.231   4.367   0.540  1.3153  0.5564 -4.7678
   68PVA     H811403   7.273   4.224   0.434 -0.6738  0.1428 -1.0964
   68PVA     C511404   7.060   4.250   0.473  1.7272 -1.1650 -0.6206
   68PVA     H911405   7.037   4.143   0.469  0.2986 -0.9163  0.2554
   68PVA     O211406   6.984   4.299   0.582  0.6318  0.2032  0.0492
   68PVA    H1011407   6.994   4.225   0.644 -1.7423  0.2318  0.5868
   68PVA     C611408   7.039   4.336   0.346 -0.0720  0.6469 -0.1686
   68PVA    H1111409   7.084   4.435   0.361 -0.1074  0.9966 -2.0204
   68PVA    H1211410   6.936   4.372   0.356 -0.1663 -0.0379  1.5152
   68PVA     C711411   7.064   4.283   0.209  0.7532 -0.3087  0.2478
   68PVA    H1311412   7.171   4.258   0.212  0.9030  0.3988  1.8284
   68PVA    H1411413   7.011   4.189   0.190 -2.4816 -0.4565  7.1386
   68PVA     C811414   7.038   4.369   0.085 -0.9587  0.5255  0.1132
   68PVA    H1511415   7.104   4.454   0.106  0.0768  0.2616 -1.8520
   68PVA     O311416   6.916   4.436   0.068  0.1108  0.2135 -1.5691
   68PVA    H1611417   6.856   4.379   0.017  1.4312  0.2455 -3.2584
   68PVA     C911418   7.100   4.312   8.045 -0.1337  0.4254 -1.2211
   68PVA    H1711419   7.046   4.227   8.002  2.6376 -2.1378 -0.0083
   68PVA    H1811420   7.207   4.292   8.061  0.2429  1.3738 -2.3981
   68PVA    C1011421   7.077   4.413   7.933 -0.0471 -1.2822 -0.5993
   68PVA    H1911422   7.091   4.513   7.975 -3.0043 -0.1895 -1.9545
   68PVA    H2011423   6.968   4.413   7.929 -0.1260 -3.7552  0.0080
   68PVA    C1111424   7.136   4.383   7.796  0.5643  0.1505  0.6501
   68PVA    H2111425   7.189   4.476   7.774  1.0402 -0.3257 -0.2677
   68PVA     O411426   7.230   4.279   7.814 -0.3842 -0.5749 -0.0634
   68PVA    H2211427   7.217   4.198   7.762  5.0197  0.5852 -4.0875
   68PVA    C1211428   7.046   4.354   7.682  0.3039  0.1875 -0.6717
   68PVA    H2311429   6.999   4.260   7.715  2.0854  0.6696  3.9696
   68PVA    H2411430   6.981   4.441   7.669  0.6320  0.3177 -1.4837
   68PVA    C1311431   7.097   4.313   7.536 -0.0392 -0.5092 -0.6712
   68PVA    H2511432   7.173   4.381   7.495  2.4074 -3.7971 -2.0428
   68PVA    H2611433   7.132   4.210   7.548 -2.6173 -1.2995  0.7122
   68PVA    C1411434   6.985   4.311   7.434  0.8094  0.7159  0.2998
   68PVA    H2711435   6.959   4.415   7.409  0.3067  1.4074  3.3044
   68PVA     O511436   6.860   4.241   7.468  0.4595  0.1047 -0.3972
   68PVA    H2811437   6.803   4.225   7.391  1.1709  2.0204 -1.3955
   68PVA    C1511438   7.040   4.251   7.307 -0.6065  1.4678 -0.7153
   68PVA    H2911439   7.097   4.166   7.345 -3.1850 -0.9066 -1.8188
   68PVA    H3011440   7.114   4.311   7.252  1.1787 -0.4971 -0.5683
   68PVA    C1611441   6.931   4.209   7.199 -0.2056 -0.6128 -0.6135
   68PVA    H3111442   6.995   4.161   7.124  4.9770  2.0177  1.5590
   68PVA    H3211443   6.860   4.133   7.232 -0.7223 -0.0272 -0.3454
   68PVA    C1711444   6.840   4.327   7.152 -0.8849  0.1975  1.0091
   68PVA    H3311445   6.893   4.421   7.172  0.3708 -0.6934  2.0555
   68PVA     O611446   6.710   4.327   7.217 -0.3654 -0.9227  0.4065
   68PVA    H3411447   6.721   4.410   7.266  0.9567 -0.6864 -0.2589
   68PVA    C1811448   6.823   4.346   6.996  1.7463  1.6155 -0.1736
   68PVA    H3511449   6.788   4.252   6.951  0.3457  1.6961  0.6640
   68PVA    H3611450   6.918   4.367   6.946 -0.6999  4.2921 -4.4106
   68PVA    C1911451   6.743   4.480   6.967 -0.2318 -0.2714 -0.1189
   68PVA    H3711452   6.763   4.548   7.050 -2.3034 -0.7191  0.7998
   68PVA    H3811453   6.634   4.477   6.980 -0.3536  0.6804 -0.7590
   68PVA    C2011454   6.790   4.551   6.834  1.0945  0.2545  1.7418
   68PVA    H3911455   6.822   4.466   6.772  0.4875  0.5637  0.9860
   68PVA     O711456   6.904   4.641   6.831  0.4868  0.1664  0.3856
   68PVA    H4011457   6.875   4.731   6.851  0.6216  0.6548 -1.4576
   68PVA    C2111458   6.662   4.619   6.766  0.1613  0.3396 -0.3727
   68PVA    H4111459   6.633   4.710   6.819  0.9020 -1.9408  4.4519
   68PVA    H4211460   6.576   4.562   6.803  0.8259  0.5231  1.5781
   68PVA    C2211461   6.676   4.618   6.606 -0.2244  0.1615  0.3637
   68PVA    H4311462   6.761   4.681   6.576 -3.1338  3.1501 -2.4239
   68PVA    H4411463   6.711   4.514   6.591  0.0693  0.0146  1.9452
   68PVA    C2311464   6.554   4.623   6.498 -0.8096 -0.5703 -0.7687
   68PVA    H4511465   6.510   4.723   6.503 -2.7395 -1.2776 -2.2359
   68PVA     O811466   6.454   4.533   6.540  0.7782 -0.7078  0.2797
   68PVA    H4611467   6.389   4.525   6.468  2.2213  0.4233 -1.2269
   68PVA    C2411468   6.601   4.595   6.357  1.2127  1.3499  0.4541
   68PVA    H4711469   6.696   4.650   6.360  1.6138  0.7355 -0.7226
   68PVA    H4811470   6.633   4.491   6.354 -2.7074 -0.2581  4.2077
   68PVA    C2511471   6.532   4.641   6.233 -0.7437 -1.0589 -0.1091
   68PVA    H4911472   6.439   4.586   6.213 -1.4045  0.4125 -1.2426
   68PVA    H5011473   6.512   4.748   6.245 -1.7353 -1.2925  0.4201
   68PVA    C2611474   6.626   4.621   6.106  0.0867 -0.4621  0.9300
   68PVA    H5111475   6.584   4.692   6.034  0.4080 -1.8106 -0.6339
   68PVA     O911476   6.587   4.491   6.039 -0.6589 -0.3138 -0.7154
   68PVA    H5211477   6.497   4.457   6.053 -1.5276  2.1774  0.1997
   68PVA    C2711478   6.775   4.633   6.103 -0.3507  0.1322 -0.9165
   68PVA    H5311479   6.811   4.544   6.155 -0.3792  2.5843  3.8883
   68PVA    H5411480   6.811   4.702   6.181  1.7226  1.2145 -2.7191
   68PVA    C2811481   6.832   4.676   5.967  1.2283  1.2149  0.5587
   68PVA    H5511482   6.836   4.595   5.892 -1.0468 -1.2608  2.9117
   68PVA    H5611483   6.761   4.750   5.928  0.6203  2.1729  3.3016
   68PVA    C2911484   6.970   4.729   5.964  0.3851 -0.3464 -1.0466
   68PVA    H5711485   6.982   4.796   6.049  1.7789 -0.5671 -1.0460
   68PVA    O1011486   7.058   4.619   5.968  0.5647 -0.5841 -0.0136
   68PVA    H5811487   7.040   4.588   6.059  1.8128  2.5324  1.4310
   68PVA    C3011488   7.012   4.805   5.840  0.0630  0.0051  1.2423
   68PVA    H5911489   6.934   4.882   5.828 -1.4443 -1.3843  1.7488
   68PVA    H6011490   7.011   4.739   5.753  0.6866  0.5126  0.8390
   68PVA    C3111491   7.156   4.875   5.844 -0.1208  0.0727  0.2111
   68PVA    H6111492   7.223   4.788   5.847 -0.1024 -0.1368 -2.9191
   68PVA    H6211493   7.166   4.916   5.945 -3.4500 -2.1315  1.6009
   68PVA    C3211494   7.196   4.966   5.723  0.4789 -1.3212  0.2760
   68PVA    H6311495   7.217   4.897   5.641  0.7499 -0.1260 -0.6900
   68PVA    O1111496   7.086   5.066   5.686  0.4750  0.3908  0.5601
   68PVA    H6411497   7.066   5.062   5.591 -0.8339  0.9669  0.7838
   68PVA    C3311498   7.324   5.052   5.745 -0.2418  0.0180  0.8825
   68PVA    H6511499   7.397   4.995   5.804 -1.3061  1.7071  4.1055
   68PVA    H6611500   7.315   5.145   5.802 -0.8270 -0.1673  1.0992
   68PVA    C3411501   7.386   5.083   5.612 -0.1696 -0.3056  0.6633
   68PVA    H6711502   7.312   5.137   5.551  2.0984  0.6081 -1.4598
   68PVA    H6811503   7.406   4.990   5.556 -0.4396 -0.6512  1.1371
   68PVA    C3511504   7.525   5.152   5.625 -1.2389 -1.4358  1.2038
   68PVA    H6911505   7.614   5.098   5.659  1.0303  1.2779  0.0149
   68PVA    O1211506   7.527   5.257   5.714  0.3974 -0.0569 -0.2149
   68PVA    H7011507   7.586   5.326   5.680  1.7600 -1.3352 -0.5350
   68PVA    C3611508   7.586   5.205   5.493  0.7383  0.6838  0.0975
   68PVA    H7111509   7.616   5.122   5.428  2.2054  0.4216  1.0753
   68PVA    H7211510   7.499   5.235   5.432  0.5991 -1.6250 -0.9651
   68PVA    C3711511   7.685   5.325   5.484  0.2950 -0.2451  0.7068
   68PVA    H7311512   7.635   5.421   5.502  1.5379  0.9997 -1.8848
   68PVA    H7411513   0.012   5.315   5.543  1.2749  2.1198 -0.3207
   68PVA    C3811514   7.724   5.349   5.337  0.6157  0.3355  0.2326
   68PVA    H7511515   7.625   5.356   5.291 -0.0717  2.6379  1.8853
   68PVA    O1311516   0.028   5.232   5.287 -0.4716  0.5339 -0.3895
   68PVA    H7611517   7.739   5.152   5.296  2.5912 -1.7178 -0.1088
   68PVA    C3911518   0.045   5.461   5.312 -0.4522 -1.3044  0.0798
   68PVA    H7711519   0.036   5.462   5.202  2.1307 -0.5144 -0.1907
   68PVA    H7811520   0.150   5.433   5.328 -0.0240 -0.2062 -0.6647
   68PVA    C4011521   0.006   5.600   5.373  0.0214 -0.1967  1.0092
   68PVA    H7911522   7.668   5.632   5.355  0.9456  1.6019 -1.8118
   68PVA    H8011523   0.015   5.585   5.481  1.0600  1.5928  1.2091
   68PVA    C4111524   0.086   5.719   5.323 -0.0350 -0.5684  0.5466
   68PVA    H8111525   0.176   5.677   5.277  0.3941  2.1909 -1.3794
   68PVA    O1411526   0.030   5.773   5.205  0.1673 -0.2281  0.6692
   68PVA    H8211527   0.046   5.869   5.205 -1.4130  0.0889 -0.7403
   68PVA    C4211528   0.109   5.822   5.441 -0.6129 -0.0547  0.2575
   68PVA    H8311529   0.011   5.869   5.456 -3.4832 -4.9250 -0.8454
   68PVA    H8411530   0.144   5.765   5.528 -0.0973 -1.2115 -0.6865
   68PVA    C4311531   0.231   5.917   5.418 -0.0619  0.5746 -1.2471
   68PVA    H8511532   0.214   5.970   5.323  2.3894  1.5484 -1.2059
   68PVA    H8611533   0.318   5.850   5.412  1.5340  2.4355 -0.0485
   68PVA    C4411534   0.252   6.040   5.515 -1.2673 -0.2077 -0.4231
   68PVA    H8711535   0.304   6.115   5.455 -2.3067  1.6090  0.8645
   68PVA    O1511536   0.119   6.085   5.559  0.1601 -0.3678  0.3022
   68PVA    H8811537   0.145   6.158   5.619  1.1276 -0.0623 -0.4484
   68PVA    C4511538   0.332   6.008   5.644 -0.8231 -0.1869 -0.1783
   68PVA    H8911539   0.402   5.928   5.618 -0.6702  0.4430 -1.8003
   68PVA    H9011540   0.271   5.968   5.726 -1.3192 -0.5620 -0.7286
   68PVA    C4611541   0.420   6.133   5.692 -0.8676  0.3861 -0.5300
   68PVA    H9111542   0.445   6.195   5.606 -0.9212  0.6996 -0.3190
   68PVA    H9211543   0.362   6.191   5.765  0.3521  1.5502 -0.4569
   68PVA    C4711544   0.545   6.089   5.789 -0.6883  0.5841 -0.3464
   68PVA    H9311545   0.635   6.064   5.730  1.2038  1.1050  2.1503
   68PVA    O1611546   0.512   5.974   5.855  0.1746 -0.0401 -0.5192
   68PVA    H9411547   0.566   5.995   5.934  0.2877  4.5573 -1.5562
   68PVA    C4811548   0.590   6.200   5.894 -1.4173  0.5668 -0.2734
   68PVA    H9511549   0.517   6.211   5.976 -0.6083  3.8746  0.1187
   68PVA    H9611550   0.594   6.304   5.861  2.4657  1.4654  2.3559
   68PVA    C4911551   0.734   6.178   5.950 -0.1119 -1.2053  0.4109
   68PVA    H9711552   0.735   6.259   6.024 -1.7022 -0.3530 -0.4334
   68PVA    H9811553   0.805   6.193   5.868  1.0821 -1.9208  1.2911
   68PVA    C5011554   0.752   6.040   6.019  0.4004  0.6853 -0.9503
   68PVA    H9911555   0.745   5.961   5.944 -0.9268  2.1004 -2.4089
   68PVA    O1711556   0.646   6.001   6.096 -0.1099  0.1638 -0.4021
   68PVA   H10011557   0.682   5.925   6.145 -0.7201  1.0895  1.5590
   68PVA    C5111558   0.878   6.030   6.112 -1.1522 -0.1704  0.5142
   68PVA   H10111559   0.893   5.922   6.129 -1.6021 -0.2682  0.3097
   68PVA   H10211560   0.865   6.072   6.212  0.4768 -0.9546  1.0839
   69PVA     C111561   0.148   3.988   0.340  0.6732 -0.1379  1.5091
   69PVA     H111562   0.251   3.962   0.365  0.5624  0.6666  2.9260
   69PVA     H211563   0.163   4.060   0.259  0.0421 -1.0461  0.5552
   69PVA     C211564   0.083   3.861   0.273  0.3027  0.0705  0.1787
   69PVA     H311565   7.748   3.848   0.315 -0.2997  0.8705 -0.9537
   69PVA     O111566   0.162   3.743   0.295  0.7089 -0.1068  0.5478
   69PVA     H411567   0.238   3.768   0.240  1.4317  2.6318  2.5798
   69PVA     C311568   0.064   3.877   0.124 -0.3652 -0.4558  0.4656
   69PVA     H511569   0.154   3.912   0.073 -1.5138  1.5676 -0.2846
   69PVA     H611570   7.765   3.964   0.104  2.6188  2.1422  1.4096
   69PVA     C411571   0.013   3.753   0.047  0.0637  1.4329  0.3470
   69PVA     H711572   7.670   3.744   0.063  0.1009 -0.3084 -0.2252
   69PVA     H811573   0.048   3.657   0.087  0.5731  1.8240  0.8517
   69PVA     C511574   0.045   3.758   7.994 -0.1922  0.1552  0.5413
   69PVA     H911575   0.054   3.861   7.956 -1.0462  1.6567  3.9938
   69PVA     O211576   0.168   3.695   7.963 -0.3851  1.1100  0.3978
   69PVA    H1011577   0.210   3.734   7.885  0.1136  1.1507  0.6809
   69PVA     C611578   7.693   3.707   7.903 -0.5434  0.5716 -0.6134
   69PVA    H1111579   7.657   3.613   7.947  1.3198  1.4774  3.2114
   69PVA    H1211580   7.603   3.767   7.922  0.1854  0.8173  2.5426
   69PVA     C711581   7.726   3.683   7.753  0.3465  0.8534 -1.0866
   69PVA    H1311582   0.064   3.649   7.736  0.8413  1.7777 -0.0427
   69PVA    H1411583   7.735   3.776   7.696  1.9558  1.3083 -0.1770
   69PVA     C811584   7.624   3.592   7.676 -0.9291 -1.6857 -0.2517
   69PVA    H1511585   7.652   3.490   7.706  1.4086 -1.3147 -0.9658
   69PVA     O311586   7.494   3.624   7.715  0.1660 -0.1556  0.7981
   69PVA    H1611587   7.457   3.609   7.626 -0.2289 -0.9284  1.0838
   69PVA     C911588   7.625   3.606   7.521 -0.7009 -0.1655  0.2414
   69PVA    H1711589   7.716   3.562   7.478 -1.7512 -3.5324  1.1633
   69PVA    H1811590   7.639   3.711   7.492  2.5736  0.1303  2.4117
   69PVA    C1011591   7.505   3.538   7.451 -0.1327  0.4815 -0.5272
   69PVA    H1911592   7.518   3.439   7.497  2.7270 -0.0770 -2.2450
   69PVA    H2011593   7.405   3.572   7.479 -1.1037 -3.5536  1.8472
   69PVA    C1111594   7.511   3.526   7.297 -1.2466  0.3798 -0.2828
   69PVA    H2111595   7.489   3.629   7.263  0.5704  1.8971  2.7676
   69PVA     O411596   7.631   3.490   7.235  0.7994 -0.3772 -0.3747
   69PVA    H2211597   7.629   3.395   7.256  1.3472 -0.8522 -2.2812
   69PVA    C1211598   7.383   3.457   7.248  0.3472 -0.4556 -1.2342
   69PVA    H2311599   7.374   3.352   7.279 -0.9998 -1.1896 -3.8201
   69PVA    H2411600   7.287   3.503   7.275  1.5113 -0.2975  3.5957
   69PVA    C1311601   7.377   3.466   7.102  0.1064  0.2695  0.6467
   69PVA    H2511602   7.465   3.433   7.046 -2.0151  1.3620 -3.8507
   69PVA    H2611603   7.358   3.569   7.067 -1.0780 -0.3249 -0.5221
   69PVA    C1411604   7.270   3.366   7.057  0.6089  0.2206  0.3293
   69PVA    H2711605   7.280   3.262   7.089 -0.3252 -0.4386 -1.4251
   69PVA     O511606   7.130   3.419   7.087 -0.3867 -1.5580 -1.4661
   69PVA    H2811607   7.073   3.342   7.069 -1.0380 -1.1016 -1.4007
   69PVA    C1511608   7.269   3.329   6.906  0.7792 -0.2139  0.3401
   69PVA    H2911609   7.222   3.405   6.844  0.7326  1.3690  2.2233
   69PVA    H3011610   7.377   3.317   6.887  1.6272 -2.0258  4.9259
   69PVA    C1611611   7.200   3.189   6.867 -1.1594  0.0799  1.4751
   69PVA    H3111612   7.092   3.190   6.883 -1.7754  3.4805 -1.5703
   69PVA    H3211613   7.238   3.103   6.924 -0.2220 -0.6639 -0.1930
   69PVA    C1711614   7.230   3.147   6.723 -0.8023  0.1984  0.8718
   69PVA    H3311615   7.336   3.169   6.703 -1.5355  2.5051 -1.0806
   69PVA     O611616   7.140   3.232   6.654 -0.8128  0.2941  0.3740
   69PVA    H3411617   7.203   3.302   6.627  0.6999 -1.4865 -0.9290
   69PVA    C1811618   7.178   3.011   6.678 -0.8701 -0.0855  0.1776
   69PVA    H3511619   7.229   2.940   6.744  1.8007  0.3236 -1.3001
   69PVA    H3611620   7.069   3.015   6.678 -0.8877  2.4432 -2.3566
   69PVA    C1911621   7.213   2.969   6.527 -0.3287  0.9462  0.5798
   69PVA    H3711622   7.181   3.052   6.462  0.9824  1.4429  0.5303
   69PVA    H3811623   7.320   2.992   6.515  0.6842 -3.1695  0.3090
   69PVA    C2011624   7.169   2.831   6.465 -0.2242  0.4722 -0.3771
   69PVA    H3911625   7.167   2.759   6.547 -2.7613 -0.1075 -0.8488
   69PVA     O711626   7.029   2.833   6.433 -0.7697 -0.5540  0.1938
   69PVA    H4011627   6.989   2.748   6.458 -0.7363 -1.0466 -1.3012
   69PVA    C2111628   7.264   2.779   6.350 -0.5649 -0.0713 -0.4524
   69PVA    H4111629   7.367   2.761   6.385  0.2187  0.7000 -2.2358
   69PVA    H4211630   7.280   2.859   6.277  1.7755 -0.5664 -0.5570
   69PVA    C2211631   7.216   2.652   6.276 -0.9939 -0.1311 -0.0727
   69PVA    H4311632   7.139   2.669   6.200  2.0527 -0.5851 -3.5520
   69PVA    H4411633   7.182   2.582   6.354  0.9891  1.8281  2.7821
   69PVA    C2311634   7.341   2.586   6.201 -0.2457  0.5616 -0.7981
   69PVA    H4511635   7.423   2.573   6.273  0.2474 -0.2041 -1.4701
   69PVA     O811636   7.391   2.668   6.091 -0.0010  0.2898  0.0470
   69PVA    H4611637   7.370   2.619   6.009  1.4367  2.0466 -1.4754
   69PVA    C2411638   7.302   2.450   6.135  0.0538 -0.7140 -1.1839
   69PVA    H4711639   7.256   2.401   6.221  3.4960  4.6812  4.5753
   69PVA    H4811640   7.221   2.464   6.062 -2.9508  1.0018  2.1994
   69PVA    C2511641   7.426   2.374   6.088 -0.9178 -0.5687  0.2701
   69PVA    H4911642   7.483   2.348   6.178 -4.5843 -0.6649  2.7946
   69PVA    H5011643   7.477   2.412   5.999 -2.3451 -0.3700 -0.4900
   69PVA    C2611644   7.397   2.230   6.025 -0.1291  0.0635 -0.7297
   69PVA    H5111645   7.329   2.248   5.942  0.4315 -0.9420 -1.4336
   69PVA     O911646   7.335   2.148   6.117  0.5210  0.1423 -0.8171
   69PVA    H5211647   7.249   2.186   6.141  0.4141  0.2919 -1.4038
   69PVA    C2711648   7.528   2.158   5.974 -0.4076 -0.1012  0.1892
   69PVA    H5311649   7.612   2.178   6.042 -0.1690 -1.2637  0.2556
   69PVA    H5411650   7.566   2.209   5.885  1.8779  2.4096  2.4182
   69PVA    C2811651   7.534   2.001   5.939 -0.4183 -0.2572  1.0002
   69PVA    H5511652   7.593   1.953   6.018 -0.3655 -0.9380  0.5511
   69PVA    H5611653   7.435   1.956   5.922 -1.5407  1.9575  1.2524
   69PVA    C2911654   7.604   1.959   5.802  0.2081 -0.2302  0.2182
   69PVA    H5711655   7.530   1.968   5.721 -1.7292  1.8969  2.0869
   69PVA    O1011656   7.728   2.028   5.775  0.3872 -1.0025  0.1385
   69PVA    H5811657   0.006   2.027   5.862  1.0927 -2.7898 -0.1990
   69PVA    C3011658   7.637   1.809   5.789 -0.8835  0.0613  1.7389
   69PVA    H5911659   7.536   1.768   5.782 -0.6838 -0.1879 -0.2210
   69PVA    H6011660   7.688   1.771   5.878  1.1269  0.0438  0.6439
   69PVA    C3111661   7.726   1.771   5.663  0.7100  0.6314  0.5377
   69PVA    H6111662   0.039   1.848   5.659  1.6571 -0.2921  0.7027
   69PVA    H6211663   7.673   1.775   5.568  0.0677 -0.4304  0.8340
   69PVA    C3211664   0.039   1.626   5.650 -0.9667  0.6277  0.0191
   69PVA    H6311665   0.080   1.595   5.747 -3.1853  0.1761  0.8664
   69PVA    O1111666   7.710   1.525   5.619 -0.3144 -0.7178 -0.2242
   69PVA    H6411667   7.701   1.520   5.523  0.8598  0.7208 -0.4421
   69PVA    C3311668   0.141   1.635   5.534 -0.3954  0.2012 -0.8291
   69PVA    H6511669   0.214   1.711   5.566  1.1059 -2.7307  3.8254
   69PVA    H6611670   0.075   1.670   5.454 -1.5602  1.2292  0.5014
   69PVA    C3411671   0.212   1.506   5.499  0.8169  1.0103 -0.6003
   69PVA    H6711672   0.195   1.491   5.392  0.3681  0.4095 -0.4509
   69PVA    H6811673   0.162   1.420   5.545 -0.8775  3.1177  1.7498
   69PVA    C3511674   0.374   1.496   5.506 -0.5105  0.2502  0.5333
   69PVA    H6911675   0.394   1.538   5.605  0.8515 -5.0696  2.8858
   69PVA    O1211676   0.431   1.563   5.391  0.0507 -0.3516 -0.2452
   69PVA    H7011677   0.500   1.625   5.421 -1.2134  0.9782  0.0143
   69PVA    C3611678   0.429   1.348   5.516  0.0481  1.1175  0.0989
   69PVA    H7111679   0.383   1.301   5.604 -3.1642  0.8028 -1.6046
   69PVA    H7211680   0.389   1.301   5.425  1.3378  0.2481 -0.0413
   69PVA    C3711681   0.582   1.335   5.516  0.3125 -0.5221 -0.1310
   69PVA    H7311682   0.625   1.399   5.593  3.2281 -2.3974 -0.0676
   69PVA    H7411683   0.613   1.360   5.413 -0.0320  1.7470  0.2553
   69PVA    C3811684   0.632   1.189   5.531  0.0526  0.4834  0.2878
   69PVA    H7511685   0.599   1.141   5.438  1.0083  0.4939 -0.0674
   69PVA    O1311686   0.588   1.114   5.642 -0.5820 -0.0408  0.1117
   69PVA    H7611687   0.664   1.053   5.638  0.4219  1.2342 -1.5062
   69PVA    C3911688   0.791   1.165   5.505 -0.8839 -0.2038 -0.1513
   69PVA    H7711689   0.850   1.215   5.582 -3.4808  3.8692 -0.5077
   69PVA    H7811690   0.821   1.221   5.416 -0.7049  0.1877  0.1519
   69PVA    C4011691   0.833   1.022   5.485  0.1590  0.2923  0.2973
   69PVA    H7911692   0.807   0.954   5.567 -1.6117  0.1593 -0.3287
   69PVA    H8011693   0.770   0.990   5.402 -0.8546  2.9911 -0.0966
   69PVA    C4111694   0.970   0.984   5.414  0.0960 -0.4021  0.5577
   69PVA    H8111695   0.964   0.875   5.403  3.2634 -0.5302 -1.3379
   69PVA    O1411696   1.073   1.039   5.492 -0.3037  1.2620 -0.2097
   69PVA    H8211697   1.151   1.026   5.435  0.2412 -1.8793  1.0593
   69PVA    C4211698   0.978   1.030   5.262  0.1279  0.0355  0.7052
   69PVA    H8311699   0.885   1.031   5.204  0.8535 -2.8478 -0.7083
   69PVA    H8411700   1.014   1.134   5.258  0.6907 -0.1656 -2.4909
   69PVA    C4311701   1.077   0.948   5.176 -1.0745  0.2745 -0.5786
   69PVA    H8511702   1.051   0.844   5.155 -0.1461  0.2324 -1.6052
   69PVA    H8611703   1.171   0.944   5.234 -0.7077 -2.3787 -1.2326
   69PVA    C4411704   1.133   1.025   5.047  0.8711  0.7715  0.9973
   69PVA    H8711705   1.055   1.093   5.011  0.4592 -0.1972  0.0332
   69PVA    O1511706   1.251   1.100   5.087  0.4715  0.5997  0.4600
   69PVA    H8811707   1.331   1.057   5.051  0.3991  0.8338  0.0042
   69PVA    C4511708   1.179   0.946   4.917  0.5441  0.1812 -0.2083
   69PVA    H8911709   1.261   0.880   4.947  1.2649  0.2738 -1.8368
   69PVA    H9011710   1.086   0.893   4.895  0.7767  0.1329 -1.1439
   69PVA    C4611711   1.236   1.032   4.788  0.0506  0.7795  0.2028
   69PVA    H9111712   1.170   1.111   4.752 -0.9476 -0.2248 -0.2185
   69PVA    H9211713   1.321   1.085   4.834  0.1800 -1.6221  3.1139
   69PVA    C4711714   1.293   0.972   4.658  0.5380 -0.1373  0.3176
   69PVA    H9311715   1.366   0.892   4.673  2.5504  1.0929 -2.1958
   69PVA    O1611716   1.342   1.088   4.599 -0.0912  0.8686  0.7377
   69PVA    H9411717   1.312   1.099   4.507  0.4640 -1.6887  0.1777
   69PVA    C4811718   1.184   0.917   4.557 -0.3148 -0.1599  0.0759
   69PVA    H9511719   1.147   0.829   4.612 -0.8830  1.4101  2.3332
   69PVA    H9611720   1.100   0.987   4.558  1.9377  2.7641  2.1915
   69PVA    C4911721   1.229   0.884   4.411 -1.5454  1.1418 -0.1570
   69PVA    H9711722   1.323   0.828   4.423 -0.8612  2.1872 -0.4867
   69PVA    H9811723   1.261   0.983   4.376 -0.4444  1.6842  2.1945
   69PVA    C5011724   1.131   0.812   4.305 -0.6919  0.1733  0.1308
   69PVA    H9911725   1.115   0.713   4.349 -1.2183  0.4754  0.6341
   69PVA    O1711726   1.008   0.874   4.286  0.1609  0.1349 -0.3077
   69PVA   H10011727   1.002   0.895   4.192 -0.0013  5.3375  0.5687
   69PVA    C5111728   1.206   0.784   4.169  1.0976  0.3390 -0.5623
   69PVA   H10111729   1.306   0.739   4.178  0.5016 -1.3461 -1.9101
   69PVA   H10211730   1.229   0.878   4.116 -0.5595  1.8725  1.3021
   70PVA     C111731   1.577   6.313   6.735 -0.0714  0.4201 -0.4030
   70PVA     H111732   1.592   6.394   6.663  2.0564  0.8556  0.4334
   70PVA     H211733   1.469   6.300   6.749  0.3584 -0.2779  3.7025
   70PVA     C211734   1.647   6.364   6.872  0.7612 -0.1021 -0.4495
   70PVA     H311735   1.722   6.429   6.825 -1.9080  2.4703 -1.5492
   70PVA     O111736   1.719   6.258   6.948 -0.5219 -0.0520 -0.3044
   70PVA     H411737   1.798   6.237   6.897 -1.9087 -2.1828 -1.7330
   70PVA     C311738   1.562   6.458   6.969 -1.3218 -0.8872 -0.3120
   70PVA     H511739   1.627   6.546   6.973  3.7607 -4.2206  1.6015
   70PVA     H611740   1.459   6.484   6.940 -0.4903  0.7171 -2.0200
   70PVA     C411741   1.531   6.406   7.110 -0.1284  0.0848 -0.2814
   70PVA     H711742   1.483   6.309   7.095 -0.2391 -0.0180  0.6798
   70PVA     H811743   1.628   6.389   7.160 -0.0239  0.8880 -0.1900
   70PVA     C511744   1.444   6.507   7.197  0.5671  0.6987  0.1547
   70PVA     H911745   1.374   6.563   7.134  0.2759  0.2756  0.0965
   70PVA     O211746   1.530   6.603   7.250  0.1741 -0.8660  0.2407
   70PVA    H1011747   1.530   6.673   7.182  4.9233 -2.7483 -2.1381
   70PVA     C611748   1.378   6.437   7.322  1.5049  0.3969 -0.7448
   70PVA    H1111749   1.440   6.369   7.381  1.3247  3.2292  3.1165
   70PVA    H1211750   1.298   6.381   7.272  0.8223 -4.6465  4.8296
   70PVA     C711751   1.283   6.515   7.424 -0.6449 -0.2433  0.3666
   70PVA    H1311752   1.331   6.610   7.451  3.1113 -1.5567 -1.0537
   70PVA    H1411753   1.185   6.534   7.379 -1.0570 -0.2468  1.2458
   70PVA     C811754   1.236   6.440   7.552  0.7618 -0.1310  0.7141
   70PVA    H1511755   1.310   6.379   7.604 -0.7324 -0.1358  2.9843
   70PVA     O311756   1.129   6.355   7.507 -0.8325 -0.1235  0.5909
   70PVA    H1611757   1.104   6.378   7.416 -1.1632  0.2554  0.7714
   70PVA     C911758   1.166   6.544   7.652  0.1875  0.7786  0.0546
   70PVA    H1711759   1.060   6.513   7.651  0.7534 -1.3094  0.1039
   70PVA    H1811760   1.180   6.642   7.605 -0.0727 -0.5506 -3.0189
   70PVA    C1011761   1.209   6.544   7.800  0.8241 -0.6475  1.0246
   70PVA    H1911762   1.207   6.443   7.843  1.0612 -1.7647 -1.4096
   70PVA    H2011763   1.310   6.587   7.807  0.3021  0.5568  1.4906
   70PVA    C1111764   1.129   6.631   7.906 -0.1256 -0.9788  0.1379
   70PVA    H2111765   1.193   6.717   7.928 -1.5409 -0.3501  2.1475
   70PVA     O411766   1.006   6.668   7.855 -0.9516  0.3925  0.0330
   70PVA    H2211767   1.027   6.757   7.824 -0.2502 -0.2314 -1.3856
   70PVA    C1211768   1.095   6.552   8.036 -1.6996  1.0960 -0.4519
   70PVA    H2311769   1.199   6.525   8.058 -1.7838 -1.7021 -2.8268
   70PVA    H2411770   1.047   6.455   8.021  3.5285 -2.3132  2.1769
   70PVA    C1311771   1.018   6.641   0.044  0.6250  1.0563  0.6332
   70PVA    H2511772   1.093   6.708   0.090  0.7054  0.5411  1.2600
   70PVA    H2611773   0.957   6.711   8.082 -2.2393 -0.2087  1.8907
   70PVA    C1411774   0.937   6.561   0.158  0.4807  0.9048 -1.1053
   70PVA    H2711775   0.983   6.466   0.189 -2.0201  0.0847  0.3729
   70PVA     O511776   0.803   6.550   0.101 -0.1363  0.9119 -0.9795
   70PVA    H2811777   0.778   6.644   0.110 -4.1701 -0.0948  0.4454
   70PVA    C1511778   0.924   6.655   0.285  0.0062  0.3862  0.6183
   70PVA    H2911779   0.864   6.746   0.270 -2.8318 -1.2484  1.3643
   70PVA    H3011780   1.024   6.673   0.328 -0.7176  1.5601  1.8995
   70PVA    C1611781   0.848   6.594   0.406 -0.8343 -0.7142  1.4590
   70PVA    H3111782   0.874   6.488   0.416  5.0280  0.5562  3.1873
   70PVA    H3211783   0.739   6.584   0.397 -1.4500  3.2237  2.5621
   70PVA    C1711784   0.895   6.667   0.535  0.1708  0.0167  0.0985
   70PVA    H3311785   1.000   6.651   0.562 -0.1379 -4.1919 -0.4856
   70PVA     O611786   0.870   6.802   0.520  0.2563  0.7260  0.6933
   70PVA    H3411787   0.923   6.826   0.442  1.8666  1.9194  2.0843
   70PVA    C1811788   0.815   6.611   0.662 -0.2720  0.1859 -0.4131
   70PVA    H3511789   0.707   6.621   0.654 -0.3622 -1.0449 -0.8777
   70PVA    H3611790   0.841   6.506   0.680  3.4895  1.0284 -0.0298
   70PVA    C1911791   0.870   6.699   0.781  0.8056  0.9314 -0.6657
   70PVA    H3711792   0.978   6.682   0.798  0.2557 -4.0331 -0.5572
   70PVA    H3811793   0.860   6.805   0.754 -0.7629  0.9131 -0.2117
   70PVA    C2011794   0.796   6.681   0.917  0.2710  0.2139 -0.1859
   70PVA    H3911795   0.689   6.690   0.895  0.8487  1.5568 -2.7682
   70PVA     O711796   0.825   6.555   0.971  0.2102  0.5861 -0.8620
   70PVA    H4011797   0.919   6.543   0.947  0.2176 -2.6603  0.3291
   70PVA    C2111798   0.814   6.797   1.033 -1.1251 -0.3879  0.9388
   70PVA    H4111799   0.833   6.900   0.999  5.1284 -0.1632  3.7535
   70PVA    H4211800   0.916   6.793   1.075 -0.7409 -1.1116 -0.0237
   70PVA    C2211801   0.717   6.795   1.156 -0.0601 -0.4964  0.3152
   70PVA    H4311802   0.614   6.782   1.119 -0.0252  2.0527 -0.8664
   70PVA    H4411803   0.745   6.717   1.228 -0.3246 -0.6940  0.2046
   70PVA    C2311804   0.706   6.943   1.211  1.5411  0.0610 -0.6923
   70PVA    H4511805   0.805   6.975   1.243  0.5715  2.2739  0.3335
   70PVA     O811806   0.633   7.024   1.131 -0.0791 -0.1595 -1.1018
   70PVA    H4611807   0.623   6.969   1.051 -1.9051 -0.0229 -0.9939
   70PVA    C2411808   0.634   6.947   1.346 -0.5489  0.3098 -0.3741
   70PVA    H4711809   0.525   6.933   1.347 -0.4632 -0.5259  1.4928
   70PVA    H4811810   0.672   6.866   1.409  2.0805  0.9299 -1.0429
   70PVA    C2511811   0.656   7.085   1.435 -0.1407  0.0905  0.0589
   70PVA    H4911812   0.582   7.159   1.405 -0.7214  0.3726  2.0585
   70PVA    H5011813   0.755   7.124   1.410  1.9219 -2.0497  3.9620
   70PVA    C2611814   0.644   7.063   1.587  0.2530  0.0268  0.2278
   70PVA    H5111815   0.536   7.068   1.603  0.2231 -0.3730  0.1698
   70PVA     O911816   0.720   6.955   1.650 -0.8008  0.3607  0.5810
   70PVA    H5211817   0.811   6.976   1.676 -0.3583 -3.0632  2.4821
   70PVA    C2711818   0.704   7.202   1.647  0.1931  0.9228  0.0586
   70PVA    H5311819   0.641   7.278   1.599 -0.6263 -1.8258 -3.7371
   70PVA    H5411820   0.811   7.214   1.626  0.1414 -2.4140 -3.2737
   70PVA    C2811821   0.671   7.220   1.792 -0.6659  0.3097  0.2268
   70PVA    H5511822   0.565   7.190   1.793 -0.9464  0.8613 -3.2456
   70PVA    H5611823   0.734   7.144   1.841 -3.6325 -1.1353  2.1487
   70PVA    C2911824   0.670   7.367   1.859 -0.2878  0.3358 -0.4461
   70PVA    H5711825   0.750   7.421   1.807  1.6013 -2.6170 -0.8196
   70PVA    O1011826   0.551   7.436   1.833  0.4123 -0.9302  0.6737
   70PVA    H5811827   0.504   7.388   1.763 -0.4117  0.7914 -0.0126
   70PVA    C3011828   0.710   7.390   2.004  0.3196  0.9617 -0.5602
   70PVA    H5911829   0.646   7.323   2.063 -2.8090  1.9565 -2.5511
   70PVA    H6011830   0.811   7.366   2.037 -1.1320  0.0050  3.7711
   70PVA    C3111831   0.668   7.535   2.061 -0.5089 -0.2044  1.0696
   70PVA    H6111832   0.563   7.553   2.035  0.6192 -1.1292 -6.3006
   70PVA    H6211833   0.723   7.601   1.993  1.4471 -3.1852 -0.4813
   70PVA    C3211834   0.691   7.556   2.212 -0.4928 -0.8739  0.8285
   70PVA    H6311835   0.799   7.540   2.228 -0.1021  2.7270  2.7296
   70PVA    O1111836   0.630   7.461   2.295 -0.1477 -0.7826  0.1362
   70PVA    H6411837   0.544   7.498   2.321 -1.3726  3.5892 -7.2237
   70PVA    C3311838   0.661   0.013   2.251  1.1509 -0.5778  0.9206
   70PVA    H6511839   0.563   0.053   2.224  1.9346 -1.4545 -4.3092
   70PVA    H6611840   0.731   0.082   2.202  3.3478 -2.1923  1.6145
   70PVA    C3411841   0.681   0.039   2.401  1.0023 -0.3399  0.0932
   70PVA    H6711842   0.592   7.673   2.439 -0.2827  1.2664 -0.6622
   70PVA    H6811843   0.782   0.024   2.441  2.0473  3.8760 -0.4800
   70PVA    C3511844   0.644   0.180   2.442 -0.0309 -0.2776 -0.5186
   70PVA    H6911845   0.546   0.196   2.396 -0.6441 -8.7214 -4.0027
   70PVA    O1211846   0.609   0.192   2.581  0.8056 -0.7830 -0.2786
   70PVA    H7011847   0.526   0.143   2.592 -0.5647  1.3224 -0.4990
   70PVA    C3611848   0.742   0.292   2.404 -0.3616  0.3157  0.5502
   70PVA    H7111849   0.840   0.251   2.430 -0.8488 -4.2400 -3.4742
   70PVA    H7211850   0.754   0.284   2.295 -1.8052  0.2248  0.3779
   70PVA    C3711851   0.718   0.440   2.462  0.0497 -0.1830  1.0262
   70PVA    H7311852   0.741   0.437   2.569  2.7030 -1.4140  0.5004
   70PVA    H7411853   0.613   0.450   2.492 -0.7775 -4.6452  0.3250
   70PVA    C3811854   0.789   0.567   2.413 -0.8462  0.4686  0.4810
   70PVA    H7511855   0.742   0.605   2.322  0.1949  3.7086  1.1406
   70PVA    O1311856   0.918   0.519   2.373  0.0693 -0.3081  0.0132
   70PVA    H7611857   0.939   0.581   2.302 -0.6249 -2.8398 -2.5869
   70PVA    C3911858   0.813   0.674   2.525  0.0990 -0.4105  0.3087
   70PVA    H7711859   0.896   0.629   2.580  0.3477  0.5719  0.7614
   70PVA    H7811860   0.728   0.693   2.592  1.9686  3.6756  1.8646
   70PVA    C4011861   0.855   0.806   2.459 -0.5226  0.4793 -0.0958
   70PVA    H7911862   0.763   0.867   2.460 -1.1342 -0.4348  0.4750
   70PVA    H8011863   0.899   0.781   2.362  2.9359  1.6583  1.0330
   70PVA    C4111864   0.952   0.895   2.542  0.3521  0.3044 -1.2026
   70PVA    H8111865   1.053   0.852   2.538  2.1304  3.3960  2.9920
   70PVA    O1411866   0.973   1.027   2.489  0.1060  0.0584 -0.0020
   70PVA    H8211867   1.008   1.090   2.554 -2.3113  0.6531  0.8270
   70PVA    C4211868   0.932   0.907   2.700  1.1118  0.7881 -0.1145
   70PVA    H8311869   0.871   0.997   2.713 -2.1930 -0.9299 -2.3866
   70PVA    H8411870   0.866   0.825   2.730  0.3097  1.1329 -0.9017
   70PVA    C4311871   1.065   0.909   2.789 -0.2645 -0.1386 -0.9545
   70PVA    H8511872   1.100   0.810   2.821 -1.4873  0.5332  3.1423
   70PVA    H8611873   1.156   0.936   2.735  1.2793 -1.8048  0.7019
   70PVA    C4411874   1.059   0.995   2.923  0.0823 -0.1304  0.1788
   70PVA    H8711875   1.041   1.097   2.888 -2.5383 -0.9821 -1.2560
   70PVA    O1511876   0.952   0.957   2.999  0.5769  0.5134  0.2065
   70PVA    H8811877   0.942   0.861   2.983  1.6177  0.0689  1.9233
   70PVA    C4511878   1.182   0.991   3.015  0.3183 -0.5964 -0.4648
   70PVA    H8911879   1.220   0.888   3.016 -0.4906 -0.9406  2.3028
   70PVA    H9011880   1.268   1.052   2.986  0.4989  1.4542  3.6348
   70PVA    C4611881   1.174   1.017   3.170 -0.1496 -0.2516 -0.4708
   70PVA    H9111882   1.098   1.094   3.184 -0.9188 -0.6183 -2.3245
   70PVA    H9211883   1.274   1.027   3.214 -1.2864 -2.1237  2.9279
   70PVA    C4711884   1.136   0.899   3.250 -0.6071  0.6248 -0.2198
   70PVA    H9311885   1.050   0.864   3.191  0.1795 -0.3346 -0.8380
   70PVA    O1611886   1.247   0.809   3.241 -0.1470 -0.2254 -0.1296
   70PVA    H9411887   1.237   0.746   3.168  4.0345  0.4768 -1.5688
   70PVA    C4811888   1.098   0.921   3.402 -0.4920 -0.1824 -0.5307
   70PVA    H9511889   1.181   0.946   3.469 -0.4569  0.6949 -0.9012
   70PVA    H9611890   1.033   1.009   3.412 -0.3889 -0.3133  2.0202
   70PVA    C4911891   1.015   0.809   3.470  0.9786  0.7081 -0.8371
   70PVA    H9711892   1.080   0.722   3.459 -1.5027 -2.1991  3.9172
   70PVA    H9811893   0.920   0.793   3.417  1.4585  4.4988 -3.1793
   70PVA    C5011894   0.988   0.854   3.622 -0.4516 -0.8232 -0.2724
   70PVA    H9911895   1.075   0.896   3.673 -0.7616  0.2805 -0.6346
   70PVA    O1711896   0.884   0.943   3.601 -0.2908 -0.4064  0.9962
   70PVA   H10011897   0.807   0.884   3.591 -0.5068  0.1323 -0.9537
   70PVA    C5111898   0.924   0.736   3.716 -0.5550 -0.0903  0.0592
   70PVA   H10111899   0.879   0.668   3.642  1.5640  3.3569 -5.0222
   70PVA   H10211900   0.833   0.783   3.755 -1.3122 -0.7855 -0.8311
   71PVA     C111901   1.953   6.269   6.456  1.1082  0.0172  0.5128
   71PVA     H111902   1.997   6.175   6.495  3.1900  0.7006 -0.0445
   71PVA     H211903   1.999   6.354   6.508  4.0882 -1.5366  0.6387
   71PVA     C211904   1.959   6.291   6.307  0.4295 -0.8276  1.0433
   71PVA     H311905   2.052   6.342   6.281 -2.2829  4.3073  0.2602
   71PVA     O111906   1.966   6.160   6.249  0.0195 -0.0069  0.0310
   71PVA     H411907   1.932   6.098   6.316  3.2795  0.3237  2.2391
   71PVA     C311908   1.841   6.376   6.246  0.1802 -0.7013  0.0405
   71PVA     H511909   1.825   6.461   6.314  0.3995 -1.3037  0.8725
   71PVA     H611910   1.740   6.333   6.243  1.0408 -2.8727 -4.0061
   71PVA     C411911   1.857   6.443   6.106  0.6022 -0.5629  0.1166
   71PVA     H711912   1.767   6.503   6.088  0.7618  0.0933  1.3473
   71PVA     H811913   1.927   6.528   6.106 -1.0786  1.1465 -4.4158
   71PVA     C511914   1.880   6.342   5.986 -0.1818 -0.4583  0.5877
   71PVA     H911915   1.855   6.386   5.888 -0.5881 -1.8120  0.0580
   71PVA     O211916   2.021   6.306   5.989  0.0983 -0.6298  0.3024
   71PVA    H1011917   2.012   6.254   6.071  0.5585 -0.0067  0.7591
   71PVA     C611918   1.780   6.218   5.983  0.1071 -0.1580 -0.5960
   71PVA    H1111919   1.853   6.137   5.973 -1.0856 -1.1774 -1.3356
   71PVA    H1211920   1.735   6.191   6.080 -2.7042  0.3216 -1.6726
   71PVA     C711921   1.687   6.199   5.871 -0.0259 -0.1919 -0.5132
   71PVA    H1311922   1.716   6.260   5.786  1.4709 -0.0523  0.0697
   71PVA    H1411923   1.588   6.240   5.895  0.4265 -0.2240  1.5944
   71PVA     C811924   1.661   6.051   5.819  0.0303 -1.1626 -0.4313
   71PVA    H1511925   1.766   6.022   5.824  0.4237  0.4203  2.7237
   71PVA     O311926   1.574   5.989   5.913  0.3237  0.2520  0.0580
   71PVA    H1611927   1.499   6.042   5.883 -0.3130  0.0825  1.3129
   71PVA     C911928   1.614   6.043   5.674 -0.0720 -0.1814 -0.0200
   71PVA    H1711929   1.508   6.065   5.654 -0.3084  0.2184  1.5125
   71PVA    H1811930   1.669   6.108   5.606 -1.4371 -0.3294 -1.3205
   71PVA    C1011931   1.621   5.901   5.617 -0.5732  0.1153  0.4760
   71PVA    H1911932   1.544   5.840   5.666  1.5319 -3.6662 -0.5022
   71PVA    H2011933   1.708   5.844   5.652  1.1486  4.5698  4.5044
   71PVA    C1111934   1.600   5.888   5.474 -0.3793  0.0063  0.0532
   71PVA    H2111935   1.505   5.939   5.452 -0.9152 -1.1546 -0.4225
   71PVA     O411936   1.567   5.754   5.434 -0.1761  0.4950 -0.1943
   71PVA    H2211937   1.504   5.701   5.485  3.8366 -3.4737  1.2990
   71PVA    C1211938   1.700   5.931   5.375 -0.4946  0.5283 -0.7799
   71PVA    H2311939   1.666   5.940   5.272  0.9109 -1.4406 -1.4870
   71PVA    H2411940   1.723   6.032   5.411 -2.9476  0.1461  2.3160
   71PVA    C1311941   1.821   5.839   5.367 -0.6960  0.0701 -0.9505
   71PVA    H2511942   1.861   5.817   5.467  3.3068  1.8420 -1.9488
   71PVA    H2611943   1.913   5.893   5.340  0.4739 -1.2661  0.1426
   71PVA    C1411944   1.819   5.697   5.315 -0.7052  1.0339  1.5550
   71PVA    H2711945   1.764   5.635   5.387 -2.2925  0.7100  0.1437
   71PVA     O511946   1.953   5.641   5.314  0.1325 -0.0708 -0.7301
   71PVA    H2811947   2.022   5.705   5.290  2.0737 -2.0539 -0.7714
   71PVA    C1511948   1.758   5.689   5.165  0.5252  0.1032 -0.7826
   71PVA    H2911949   1.652   5.718   5.172 -0.0191 -0.1493 -5.1705
   71PVA    H3011950   1.728   5.585   5.146 -6.2571  1.2094  0.8580
   71PVA    C1611951   1.824   5.763   5.050 -1.0351 -0.5191 -0.4186
   71PVA    H3111952   1.751   5.784   4.971  0.7120 -1.5209 -2.4064
   71PVA    H3211953   1.877   5.852   5.086 -3.0888  1.3183 -1.6685
   71PVA    C1711954   1.924   5.690   4.967 -0.6058  0.7522  1.0611
   71PVA    H3311955   1.866   5.611   4.919 -0.2631  1.9979 -1.5672
   71PVA     O611956   2.013   5.628   5.040 -0.9114  0.1784 -0.6810
   71PVA    H3411957   1.962   5.553   5.077  0.4087 -2.2482 -3.3782
   71PVA    C1811958   2.002   5.777   4.868 -0.1461 -0.4243  0.6351
   71PVA    H3511959   2.107   5.752   4.886 -0.9533 -4.0270  1.1434
   71PVA    H3611960   1.988   5.884   4.888 -0.2301 -0.1618 -0.7360
   71PVA    C1911961   1.959   5.745   4.727 -0.5740  0.3938  1.8588
   71PVA    H3711962   1.851   5.745   4.710 -0.1988 -1.7102 -1.3804
   71PVA    H3811963   1.996   5.643   4.714 -2.8272 -0.2789 -0.0012
   71PVA    C2011964   2.026   5.833   4.622 -0.1615 -0.0354 -0.1557
   71PVA    H3911965   2.135   5.831   4.626  0.0284  0.5030 -2.8851
   71PVA     O711966   1.983   5.967   4.626  0.2031 -0.0284 -0.0586
   71PVA    H4011967   1.894   5.968   4.585  0.9924 -0.6933 -1.8785
   71PVA    C2111968   2.015   5.756   4.487  0.5997  0.2447 -0.2846
   71PVA    H4111969   1.911   5.743   4.457 -0.0106 -0.1822  1.8628
   71PVA    H4211970   2.045   5.651   4.488  0.0633 -0.1248 -4.2883
   71PVA    C2211971   2.109   5.814   4.381  1.2178 -0.0979 -0.3551
   71PVA    H4311972   2.207   5.834   4.427  1.5494  2.0847 -1.8693
   71PVA    H4411973   2.129   5.723   4.324 -0.4771 -2.3948  2.4101
   71PVA    C2311974   2.051   5.930   4.294  0.5445 -0.4394  0.4857
   71PVA    H4511975   1.963   5.907   4.233  2.9888 -2.9037 -2.4565
   71PVA     O811976   2.049   6.049   4.385  0.8148  1.3750  1.0895
   71PVA    H4611977   2.016   6.004   4.464 -4.2381 -2.7066 -2.6059
   71PVA    C2411978   2.146   5.973   4.187 -0.7631 -1.1455 -0.0444
   71PVA    H4711979   2.254   5.972   4.206 -0.1031  0.3584 -3.1458
   71PVA    H4811980   2.142   5.895   4.110  3.4444  0.2343 -1.9859
   71PVA    C2511981   2.125   6.106   4.106 -0.8763  0.1458  0.2221
   71PVA    H4911982   2.218   6.119   4.049  1.7272 -2.4009  3.5021
   71PVA    H5011983   2.128   6.190   4.175  1.2764  1.9224 -1.8640
   71PVA    C2611984   1.994   6.081   4.011 -0.1340 -0.3494  0.2964
   71PVA    H5111985   1.915   6.034   4.071 -1.7699  2.4748  0.5438
   71PVA     O911986   2.013   6.010   3.896  0.1756  0.5026  0.2907
   71PVA    H5211987   2.057   5.926   3.916 -0.9983 -0.1192  0.3971
   71PVA    C2711988   1.919   6.207   3.958 -0.3566 -0.7120  0.5398
   71PVA    H5311989   1.931   6.287   4.033 -2.3823 -0.5950  0.7890
   71PVA    H5411990   1.954   6.217   3.855  1.4477 -1.1528  1.0650
   71PVA    C2811991   1.770   6.194   3.931 -0.6459 -0.2656 -0.1928
   71PVA    H5511992   1.746   6.112   3.862 -1.0980  0.6531 -1.1424
   71PVA    H5611993   1.730   6.178   4.032  0.0873 -2.8509 -0.2231
   71PVA    C2911994   1.710   6.320   3.876  0.0304  0.5042 -0.2435
   71PVA    H5711995   1.799   6.379   3.853  1.4694 -1.6378 -0.4367
   71PVA    O1011996   1.631   6.383   3.967 -0.1409  0.0625  0.2825
   71PVA    H5811997   1.582   6.459   3.930 -2.4160  0.6333  4.0110
   71PVA    C3011998   1.631   6.313   3.742 -0.5148  0.1516 -0.9627
   71PVA    H5911999   1.606   6.409   3.696 -2.6005 -1.1670 -2.8008
   71PVA    H6012000   1.696   6.256   3.674 -2.2545 -1.1426 -1.6334
   71PVA    C3112001   1.500   6.231   3.742 -1.0905 -1.0677 -0.2593
   71PVA    H6112002   1.428   6.289   3.801 -0.7476  1.0468 -1.8005
   71PVA    H6212003   1.515   6.128   3.776  1.9755 -1.9779 -3.7128
   71PVA    C3212004   1.445   6.213   3.593 -1.2106  1.3376  0.0508
   71PVA    H6312005   1.460   6.105   3.586  2.1356  1.7461 -0.8941
   71PVA    O1112006   1.528   6.275   3.498 -0.1615 -0.2640  0.0403
   71PVA    H6412007   1.467   6.298   3.425 -2.1828 -0.8834  1.4602
   71PVA    C3312008   1.305   6.249   3.569  0.2592  0.1805 -0.5421
   71PVA    H6512009   1.287   6.357   3.571  0.9265  0.3428  2.7925
   71PVA    H6612010   1.262   6.201   3.658  1.2063 -0.1964 -0.2731
   71PVA    C3412011   1.248   6.178   3.441 -0.4076  0.8771  0.4912
   71PVA    H6712012   1.267   6.257   3.367  0.6280  0.2717  0.0962
   71PVA    H6812013   1.303   6.084   3.435 -1.7545 -0.1170  2.6652
   71PVA    C3512014   1.084   6.156   3.432 -1.3465 -0.0279 -0.2609
   71PVA    H6912015   1.061   6.078   3.505  0.1380  1.5117  1.9630
   71PVA    O1212016   1.022   6.273   3.480  0.7198  0.0824  0.1410
   71PVA    H7012017   0.935   6.278   3.525  0.0836 -1.7418 -0.8131
   71PVA    C3612018   1.037   6.123   3.293 -0.1833 -0.4793  0.5706
   71PVA    H7112019   0.930   6.127   3.316 -0.0087  2.9055  1.4557
   71PVA    H7212020   1.069   6.196   3.218 -1.1064 -0.5024  0.1483
   71PVA    C3712021   1.093   5.977   3.257 -0.1787  0.0067 -1.1730
   71PVA    H7312022   1.160   5.934   3.333 -0.9850  1.0487  0.1673
   71PVA    H7412023   1.161   5.980   3.170  0.5940 -2.6682 -0.7534
   71PVA    C3812024   0.976   5.879   3.245  0.4799 -0.9817  0.3097
   71PVA    H7512025   0.934   5.869   3.345 -1.2966  0.3931 -0.2593
   71PVA    O1312026   0.870   5.920   3.160 -0.0892 -1.4485  0.1160
   71PVA    H7612027   0.784   5.890   3.192 -1.5885  0.9708 -1.3198
   71PVA    C3912028   1.022   5.753   3.170  0.1642  0.8302  0.2233
   71PVA    H7712029   0.937   5.689   3.140  1.5178 -1.5076  1.1127
   71PVA    H7812030   1.075   5.765   3.075  1.4038 -2.7328  0.3114
   71PVA    C4012031   1.102   5.662   3.269 -0.5450 -0.0488  0.5216
   71PVA    H7912032   1.024   5.646   3.344 -1.7857  3.9350  0.3117
   71PVA    H8012033   1.183   5.733   3.292 -3.0733  2.5885  1.9266
   71PVA    C4112034   1.162   5.515   3.235 -0.2046 -0.8304 -0.5639
   71PVA    H8112035   1.158   5.455   3.327  1.2541 -1.1257 -0.6740
   71PVA    O1412036   1.072   5.466   3.133 -0.6131 -0.1778  0.2812
   71PVA    H8212037   0.987   5.507   3.154 -0.0737  1.5516 -0.6510
   71PVA    C4212038   1.303   5.518   3.167  0.3120 -0.6356 -0.6608
   71PVA    H8312039   1.305   5.582   3.078  2.7843  0.3173 -0.0023
   71PVA    H8412040   1.383   5.543   3.238  1.1735 -1.3869 -1.3582
   71PVA    C4312041   1.339   5.373   3.126  0.0950 -0.9638  0.3950
   71PVA    H8512042   1.297   5.347   3.028 -0.0307  0.8907 -0.0703
   71PVA    H8612043   1.295   5.306   3.201 -1.7445  0.7914  0.9667
   71PVA    C4412044   1.490   5.363   3.110 -0.0977  0.8699 -0.0456
   71PVA    H8712045   1.520   5.375   3.215 -1.2399 -0.2288  0.4376
   71PVA    O1512046   1.520   5.220   3.093 -0.0193  0.2837 -0.7130
   71PVA    H8812047   1.616   5.223   3.104 -0.0965 -1.6389  1.2193
   71PVA    C4512048   1.555   5.468   2.997 -0.3634 -0.1371 -0.3447
   71PVA    H8912049   1.531   5.572   3.025 -1.2656  0.5068 -3.2051
   71PVA    H9012050   1.663   5.447   3.002 -0.6405 -1.4588  2.6756
   71PVA    C4612051   1.507   5.430   2.855 -0.1910 -0.2811 -0.4665
   71PVA    H9112052   1.590   5.434   2.784  1.5096 -2.2400  1.3093
   71PVA    H9212053   1.472   5.326   2.851 -2.2599  0.3988 -2.3328
   71PVA    C4712054   1.388   5.517   2.788  0.8318  0.7358 -0.1013
   71PVA    H9312055   1.412   5.624   2.792 -0.3817  0.9865  1.1806
   71PVA    O1612056   1.256   5.492   2.849 -1.1073  0.1444  0.0795
   71PVA    H9412057   1.205   5.575   2.843  0.4883  1.4343  2.6926
   71PVA    C4812058   1.374   5.504   2.639 -0.6550  0.1770 -1.3183
   71PVA    H9512059   1.288   5.562   2.605 -1.0157  0.2358 -0.3306
   71PVA    H9612060   1.467   5.547   2.599  2.3102 -2.6777  1.8930
   71PVA    C4912061   1.339   5.357   2.592 -0.9364 -0.0080 -0.5127
   71PVA    H9712062   1.247   5.328   2.646  0.1956 -2.4046  0.2582
   71PVA    H9812063   1.408   5.273   2.603  2.7716  2.8139 -0.2825
   71PVA    C5012064   1.273   5.356   2.456  0.7408 -0.1640 -0.3771
   71PVA    H9912065   1.185   5.422   2.444  2.8849  3.0954  0.4626
   71PVA    O1712066   1.360   5.440   2.381  0.1963  0.4106  0.5700
   71PVA   H10012067   1.387   5.516   2.434 -0.5821  2.2277 -1.4877
   71PVA    C5112068   1.233   5.231   2.384  0.4903  0.2935  0.8353
   71PVA   H10112069   1.129   5.212   2.413  0.6897  1.5053  2.5483
   71PVA   H10212070   1.231   5.264   2.279 -1.2143 -1.9826  0.0773
   72PVA     C112071   0.986   7.339   3.936 -0.8264  0.4718  0.1845
   72PVA     H112072   1.092   7.355   3.912 -1.5765 -0.0581 -4.2649
   72PVA     H212073   0.984   7.357   4.044  2.9310 -0.4630  0.5409
   72PVA     C212074   0.933   7.208   3.912 -0.2398  0.4613  0.5329
   72PVA     H312075   0.826   7.205   3.935  0.0361 -2.3406  1.8921
   72PVA     O112076   0.961   7.178   3.778 -0.4326 -0.1937 -0.2194
   72PVA     H412077   0.900   7.233   3.726  2.1532  0.1666 -3.1793
   72PVA     C312078   1.000   7.091   4.009 -0.0147 -0.1464 -0.8278
   72PVA     H512079   1.108   7.107   4.017  0.1656  1.0411 -4.1230
   72PVA     H612080   1.000   6.998   3.950 -2.1294 -1.6921  1.4562
   72PVA     C412081   0.929   7.035   4.146  0.9296  0.5648 -0.1772
   72PVA     H712082   0.952   7.110   4.222  1.3368  3.2183 -2.7216
   72PVA     H812083   0.819   7.033   4.145  0.8106  1.7982  2.3348
   72PVA     C512084   0.978   6.886   4.188 -0.0377 -0.3462 -0.5807
   72PVA     H912085   1.059   6.847   4.125  0.0472 -0.7616 -0.2244
   72PVA     O212086   1.043   6.892   4.312 -0.5455  0.2136 -0.2385
   72PVA    H1012087   1.019   6.809   4.357 -1.3128  1.4906  1.8510
   72PVA     C612088   0.874   6.772   4.184  0.5722 -0.8618  0.9202
   72PVA    H1112089   0.777   6.796   4.230  0.0327 -0.3015 -0.4770
   72PVA    H1212090   0.854   6.766   4.076 -1.2357  1.7188  1.0164
   72PVA     C712091   0.918   6.631   4.214  0.9573  0.3593  0.7554
   72PVA    H1312092   0.992   6.603   4.138 -0.5462  1.9495 -1.4105
   72PVA    H1412093   0.830   6.576   4.178  3.0239 -0.7600 -3.1348
   72PVA     C812094   0.943   6.590   4.361 -0.6646  0.3736  0.2325
   72PVA    H1512095   0.865   6.637   4.421  1.4286 -1.5831  4.9840
   72PVA     O312096   1.069   6.630   4.416 -0.8372  0.7059 -1.1481
   72PVA    H1612097   1.103   6.553   4.465  0.9471  2.5491  0.7153
   72PVA     C912098   0.945   6.438   4.361  0.4250  0.6161 -1.3572
   72PVA    H1712099   1.026   6.411   4.293 -1.1978 -0.7074 -2.8605
   72PVA    H1812100   0.860   6.399   4.303  0.0383 -0.1197 -0.3156
   72PVA    C1012101   0.959   6.370   4.502 -0.4103  0.3611 -0.1889
   72PVA    H1912102   0.863   6.395   4.549  1.1985  4.0476  1.5259
   72PVA    H2012103   1.038   6.409   4.567  1.5632 -1.8309 -1.1352
   72PVA    C1112104   0.987   6.219   4.498  0.8652  0.5265 -0.3210
   72PVA    H2112105   1.057   6.201   4.416 -3.5140 -2.3055 -3.9134
   72PVA     O412106   0.870   6.134   4.478 -0.3051 -0.5945  0.5861
   72PVA    H2212107   0.823   6.146   4.393  2.1271  0.7063 -0.6685
   72PVA    C1212108   1.052   6.165   4.628 -0.1367  1.2263 -0.2739
   72PVA    H2312109   1.119   6.239   4.674  1.6447  0.6607 -1.8396
   72PVA    H2412110   0.969   6.135   4.694  0.2678  0.8080  0.0523
   72PVA    C1312111   1.132   6.037   4.612  0.5559  0.3346  0.6889
   72PVA    H2512112   1.176   6.010   4.708 -0.1656  0.9866  1.2216
   72PVA    H2612113   1.223   6.049   4.552  1.3221 -1.0840  1.5366
   72PVA    C1412114   1.068   5.904   4.556 -0.3699 -0.5879  0.9765
   72PVA    H2712115   1.047   5.923   4.450 -0.3090  1.5353  1.3047
   72PVA     O512116   0.940   5.898   4.630 -0.4207 -0.6035  0.9197
   72PVA    H2812117   0.890   5.973   4.593  1.4904  0.0277 -0.5792
   72PVA    C1512118   1.146   5.775   4.587 -0.1932  1.0612  1.0277
   72PVA    H2912119   1.186   5.786   4.689  0.6608 -1.8086  1.0809
   72PVA    H3012120   1.238   5.757   4.532 -3.3051 -3.0475 -3.7126
   72PVA    C1612121   1.060   5.643   4.577  0.7312 -1.2731 -0.6862
   72PVA    H3112122   1.014   5.631   4.478  3.1093 -2.6852 -1.6950
   72PVA    H3212123   0.971   5.655   4.640  0.7325 -3.0534 -0.2877
   72PVA    C1712124   1.130   5.508   4.617  0.2275 -0.4043  0.4085
   72PVA    H3312125   1.042   5.443   4.615 -0.9695  0.8652  4.1910
   72PVA     O612126   1.182   5.523   4.747  0.0679 -1.0102  0.8616
   72PVA    H3412127   1.129   5.599   4.775  0.2343 -0.1030 -1.1046
   72PVA    C1812128   1.231   5.456   4.511 -0.3449  0.5765  0.7470
   72PVA    H3512129   1.172   5.437   4.420  0.5126 -4.1293  0.9259
   72PVA    H3612130   1.306   5.534   4.492 -0.2753  0.5664  0.9823
   72PVA    C1912131   1.291   5.312   4.559 -0.4935 -0.5312  0.7350
   72PVA    H3712132   1.211   5.237   4.549 -1.5076  0.3482  1.8560
   72PVA    H3812133   1.317   5.307   4.666  3.0728 -2.5719 -0.0835
   72PVA    C2012134   1.418   5.259   4.482  0.1472 -0.6560  0.7181
   72PVA    H3912135   1.499   5.332   4.489 -3.0696  3.2598  0.4679
   72PVA     O712136   1.372   5.272   4.351 -0.1177 -0.1947 -0.6026
   72PVA    H4012137   1.364   5.369   4.345  1.9020  0.0025 -6.0026
   72PVA    C2112138   1.461   5.124   4.528 -0.6851  0.3401  0.0931
   72PVA    H4112139   1.381   5.060   4.488 -0.9327  1.9226 -2.1209
   72PVA    H4212140   1.466   5.143   4.636  1.0932 -0.8282  0.2553
   72PVA    C2212141   1.612   5.090   4.490 -0.9515 -0.3119  0.0970
   72PVA    H4312142   1.616   5.079   4.381 -3.2658  2.9177 -0.4726
   72PVA    H4412143   1.691   5.158   4.525 -1.1400 -1.3932  2.8964
   72PVA    C2312144   1.655   4.954   4.563  0.0106  0.5615  0.0002
   72PVA    H4512145   1.715   4.984   4.650 -1.2496  1.0794  0.7313
   72PVA     O812146   1.551   4.865   4.609  0.3118 -0.3834 -0.3611
   72PVA    H4612147   1.471   4.907   4.647  2.5918  0.4063  4.4159
   72PVA    C2412148   1.752   4.880   4.479 -0.6544  0.2921 -0.4744
   72PVA    H4712149   1.709   4.815   4.402  1.5013 -3.1989  1.0167
   72PVA    H4812150   1.808   4.957   4.422 -3.6220  2.7155 -0.3712
   72PVA    C2512151   1.866   4.794   4.549 -0.1484  0.1730 -1.0146
   72PVA    H4912152   1.819   4.708   4.598  1.3708  0.6430  1.4872
   72PVA    H5012153   1.911   4.862   4.623 -1.1445  0.4342 -0.6281
   72PVA    C2612154   2.000   4.755   4.465  0.4101  0.3967 -1.2116
   72PVA    H5112155   1.971   4.734   4.361 -0.5957  0.1069 -0.8825
   72PVA     O912156   2.059   4.649   4.526 -0.6441  0.9490  0.0989
   72PVA    H5212157   2.136   4.616   4.478 -1.0217 -1.1543  0.8426
   72PVA    C2712158   2.103   4.874   4.453 -0.5329 -0.8097 -0.8191
   72PVA    H5312159   2.160   4.885   4.546 -1.9605 -1.8887  0.2442
   72PVA    H5412160   2.049   4.967   4.434 -2.2223 -1.5047  0.3416
   72PVA    C2812161   2.211   4.848   4.350 -0.0636 -0.3417  0.5572
   72PVA    H5512162   2.168   4.793   4.266 -2.9480 -1.4514  2.5854
   72PVA    H5612163   2.284   4.776   4.391 -3.5295 -2.2818  4.0453
   72PVA    C2912164   2.299   4.972   4.304  0.3991  0.3508 -0.4718
   72PVA    H5712165   2.348   5.025   4.386  0.2379  0.5958 -0.5343
   72PVA    O1012166   2.212   5.070   4.258  1.3297  0.5783 -0.3206
   72PVA    H5812167   2.269   5.148   4.244  1.5047  0.2253 -1.7515
   72PVA    C3012168   2.395   4.938   4.186 -0.0959  0.4667 -1.4963
   72PVA    H5912169   2.459   5.024   4.160 -0.6941  0.8211 -1.8345
   72PVA    H6012170   2.468   4.872   4.234  1.7636  1.8907 -2.2122
   72PVA    C3112171   2.339   4.867   4.063  0.7508  0.9475 -0.5294
   72PVA    H6112172   2.295   4.773   4.098  2.9471 -0.7361 -2.0024
   72PVA    H6212173   2.422   4.834   4.000 -0.5506 -0.3739 -1.6124
   72PVA    C3212174   2.231   4.941   3.984 -0.9013 -0.8904 -0.0883
   72PVA    H6312175   2.260   5.047   3.982 -1.7184 -0.6674 -1.1161
   72PVA    O1112176   2.110   4.951   4.051 -0.0024 -0.1394 -0.6814
   72PVA    H6412177   2.132   4.987   4.139 -3.1064  4.6240 -1.4702
   72PVA    C3312178   2.207   4.900   3.842  0.8923 -0.4371 -0.5861
   72PVA    H6512179   2.220   4.791   3.835 -2.2785 -1.4083  4.0410
   72PVA    H6612180   2.291   4.947   3.789  2.3019 -0.3010  1.6561
   72PVA    C3412181   2.072   4.915   3.774 -0.9098 -0.5584  1.2679
   72PVA    H6712182   1.985   4.905   3.840 -2.0038  3.0009  0.5674
   72PVA    H6812183   2.057   5.020   3.747 -0.1716 -0.7284  0.1186
   72PVA    C3512184   2.030   4.842   3.638  0.4439 -0.9979  1.0532
   72PVA    H6912185   1.928   4.812   3.664 -1.2256  2.0201 -1.4044
   72PVA    O1212186   2.109   4.723   3.610 -0.1002  0.1437  0.4668
   72PVA    H7012187   2.095   4.688   3.521  2.8932 -0.6114  0.1981
   72PVA    C3612188   2.003   4.940   3.509  0.3079  0.4140 -0.6475
   72PVA    H7112189   1.968   5.031   3.560  2.3531  2.4855 -2.6890
   72PVA    H7212190   2.088   4.990   3.461 -2.4183  4.4962 -1.7517
   72PVA    C3712191   1.914   4.884   3.397  0.1222  0.6097 -1.7796
   72PVA    H7312192   1.829   4.825   3.433  1.1774 -1.1842 -2.1143
   72PVA    H7412193   1.975   4.803   3.355 -1.4563 -0.2678 -2.4212
   72PVA    C3812194   1.856   4.975   3.280 -0.4084  0.3818  0.5017
   72PVA    H7512195   1.835   5.070   3.331  1.5223  0.6278  0.9005
   72PVA    O1312196   1.734   4.931   3.226 -0.9603 -0.0171  1.3774
   72PVA    H7612197   1.724   4.975   3.140 -3.0274 -0.0958  1.5186
   72PVA    C3912198   1.950   4.997   3.156  0.3715 -0.2058 -0.9585
   72PVA    H7712199   1.941   4.912   3.086 -1.3473 -1.3550  0.5641
   72PVA    H7812200   2.056   5.005   3.181  0.1866  0.9732 -0.4706
   72PVA    C4012201   1.900   5.130   3.079  1.1213  0.6749 -0.8936
   72PVA    H7912202   1.835   5.188   3.145 -0.2255  0.4357 -1.9773
   72PVA    H8012203   1.985   5.199   3.073  1.7322 -0.1309 -1.9362
   72PVA    C4112204   1.819   5.104   2.955  0.5602  0.6529 -0.1159
   72PVA    H8112205   1.785   5.207   2.938  0.7783  1.0049  1.3659
   72PVA    O1412206   1.717   5.004   2.972 -0.0238  0.2131 -0.8699
   72PVA    H8212207   1.675   4.965   2.894 -4.9562 -1.0780  1.9658
   72PVA    C4212208   1.915   5.072   2.833 -1.1832 -1.0911 -0.4470
   72PVA    H8312209   1.969   4.981   2.862  0.0689  0.7418  3.7988
   72PVA    H8412210   1.999   5.141   2.847  0.2713 -2.3256 -2.6072
   72PVA    C4312211   1.860   5.063   2.682  0.1518  0.0184  0.8135
   72PVA    H8512212   1.798   5.144   2.642  0.7428  0.6427  1.1543
   72PVA    H8612213   1.790   4.981   2.660  1.7475 -1.1619 -0.1288
   72PVA    C4412214   1.994   5.044   2.607 -0.5638 -0.8689 -0.6394
   72PVA    H8712215   2.050   4.974   2.671  1.1575  0.0963 -1.0265
   72PVA    O1512216   2.060   5.175   2.603  0.9483 -0.6915 -1.0327
   72PVA    H8812217   2.054   5.214   2.514  1.8589 -0.2227 -0.9012
   72PVA    C4512218   1.991   4.970   2.466  1.0701  0.5652 -0.9532
   72PVA    H8912219   1.896   4.916   2.457  0.5631  0.7318  2.3361
   72PVA    H9012220   2.051   4.878   2.466 -1.5010 -1.2815  1.2757
   72PVA    C4612221   2.034   5.066   2.354  0.7664  0.8624  0.2032
   72PVA    H9112222   1.965   5.151   2.342  0.4833  0.5994 -0.0278
   72PVA    H9212223   2.138   5.080   2.385  2.0216 -2.2853 -2.0427
   72PVA    C4712224   2.056   5.001   2.216 -0.4337  0.0457 -0.0437
   72PVA    H9312225   2.153   5.027   2.173 -1.2868  2.0733 -0.8949
   72PVA    O1612226   2.057   4.860   2.225 -0.5245 -0.0577 -0.8293
   72PVA    H9412227   2.138   4.848   2.278 -1.0648  1.7461  0.5210
   72PVA    C4812228   1.955   5.023   2.098 -0.2149 -0.9089  0.5360
   72PVA    H9512229   1.932   5.130   2.114  2.9906  0.0383 -0.3882
   72PVA    H9612230   2.002   5.019   1.999  1.1019 -7.8395  0.9880
   72PVA    C4912231   1.823   4.944   2.101  0.4266  1.6611  1.0532
   72PVA    H9712232   1.833   4.840   2.134 -2.0214  0.0049 -2.6729
   72PVA    H9812233   1.798   4.924   1.996  2.9433  0.5362  0.6016
   72PVA    C5012234   1.702   4.994   2.182 -0.7336 -0.2342  0.9734
   72PVA    H9912235   1.651   5.072   2.123 -1.4148 -1.3992 -0.0300
   72PVA    O1712236   1.743   5.047   2.312  0.0469 -1.0232 -0.1772
   72PVA   H10012237   1.819   4.996   2.345  0.2818  0.2700  1.4388
   72PVA    C5112238   1.573   4.899   2.189 -0.9729  0.1962  0.4849
   72PVA   H10112239   1.516   4.917   2.097  1.6608 -1.3902 -1.6307
   72PVA   H10212240   1.594   4.792   2.187  2.1621  0.6788 -1.9060
   73PVA     C112241   0.625   7.569   4.104 -0.2570 -0.5322  1.5604
   73PVA     H112242   0.560   7.624   4.034  2.0878  1.7670  1.0662
   73PVA     H212243   0.624   7.656   4.171 -3.4173  0.9517 -0.1663
   73PVA     C212244   0.569   7.439   4.162 -0.7621 -0.7937  1.2167
   73PVA     H312245   0.585   7.362   4.086  4.8711 -0.7147  1.8805
   73PVA     O112246   0.431   7.469   4.185  0.4721 -0.0372 -0.2632
   73PVA     H412247   0.387   7.529   4.122 -4.4735 -0.7374  2.0175
   73PVA     C312248   0.637   7.400   4.288  0.1995 -0.8020  0.6617
   73PVA     H512249   0.551   7.397   4.356 -2.0046 -1.2840 -1.9940
   73PVA     H612250   0.723   7.459   4.321  0.6880 -1.3569  0.4085
   73PVA     C412251   0.696   7.261   4.266  0.3581 -0.0326 -0.3552
   73PVA     H712252   0.642   7.213   4.183  0.7759  3.0620 -2.5900
   73PVA     H812253   0.790   7.294   4.220 -0.8679  2.5152 -1.2426
   73PVA     C512254   0.735   7.172   4.391 -0.9181 -0.0656 -0.1888
   73PVA     H912255   0.839   7.137   4.390 -0.5528  0.9714 -0.2621
   73PVA     O212256   0.714   7.239   4.519  0.2746  0.1746  0.8277
   73PVA    H1012257   0.747   7.173   4.582 -0.1333  2.1709  3.3061
   73PVA     C612258   0.661   7.044   4.395  0.2539  0.1342  0.2227
   73PVA    H1112259   0.553   7.064   4.390 -0.1068 -1.1044  2.1100
   73PVA    H1212260   0.715   6.976   4.328  2.5140  1.9475  0.0760
   73PVA     C712261   0.665   6.964   4.531 -0.8784 -0.0190  0.3399
   73PVA    H1312262   0.642   7.040   4.607 -0.4312 -1.0440  1.5290
   73PVA    H1412263   0.770   6.949   4.558 -0.6172  0.2932 -0.4841
   73PVA     C812264   0.573   6.839   4.554  0.9959 -0.3865 -1.0545
   73PVA    H1512265   0.495   6.849   4.478  0.5849  1.6018 -0.4274
   73PVA     O312266   0.640   6.728   4.503 -0.3647 -0.3592 -0.0546
   73PVA    H1612267   0.699   6.691   4.572  1.3011  1.9402 -0.1445
   73PVA     C912268   0.523   6.814   4.702  0.0979  0.0119  0.0436
   73PVA    H1712269   0.546   6.915   4.738 -2.2939  1.6105 -2.5375
   73PVA    H1812270   0.588   6.747   4.761 -1.0765 -1.9703 -0.8233
   73PVA    C1012271   0.371   6.806   4.720  1.2058 -0.3619  0.9532
   73PVA    H1912272   0.326   6.879   4.788  0.4404  1.7389 -1.6701
   73PVA    H2012273   0.337   6.873   4.640  3.4923  0.3002  0.4443
   73PVA    C1112274   0.289   6.684   4.701 -0.7790 -0.6458  0.1862
   73PVA    H2112275   0.183   6.694   4.724 -1.0460  0.6081 -1.3811
   73PVA     O412276   0.321   6.630   4.578  0.6215 -0.3710  0.3382
   73PVA    H2212277   0.265   6.666   4.507 -0.6047 -2.2800  0.2544
   73PVA    C1212278   0.322   6.591   4.816 -0.1678  0.1805 -0.3064
   73PVA    H2312279   0.428   6.561   4.806  0.2578  2.0406 -1.9786
   73PVA    H2412280   0.305   6.631   4.917 -0.0518 -1.5024  0.4142
   73PVA    C1312281   0.257   6.460   4.800 -1.0074  1.0572 -0.1748
   73PVA    H2512282   0.319   6.406   4.727  4.4439 -1.3409  5.2887
   73PVA    H2612283   0.158   6.477   4.756 -0.4755  2.0562 -1.0330
   73PVA    C1412284   0.226   6.378   4.920 -0.4456 -0.0732  0.6522
   73PVA    H2712285   0.167   6.442   4.987  1.7831 -0.3189  3.0168
   73PVA     O512286   0.351   6.332   4.971  0.2146 -0.3547  0.1897
   73PVA    H2812287   0.410   6.408   4.984 -0.8392  0.4380  0.5161
   73PVA    C1512288   0.146   6.245   4.897 -0.2588 -0.3171  0.6668
   73PVA    H2912289   0.206   6.164   4.853  0.9234  1.4637 -1.1673
   73PVA    H3012290   0.074   6.274   4.820 -2.9850  1.0149  3.5228
   73PVA    C1612291   0.084   6.194   5.026  1.2470  1.0575  0.2010
   73PVA    H3112292   0.083   6.085   5.028  0.5367  1.0678  0.6896
   73PVA    H3212293   0.143   6.207   5.117  2.0850 -2.8876  0.3938
   73PVA    C1712294   7.709   6.258   5.060  1.0713 -0.1233  0.4773
   73PVA    H3312295   7.720   6.366   5.077 -5.2006  1.5818 -3.0502
   73PVA     O612296   7.636   6.242   4.935 -0.6329 -0.4447  0.4063
   73PVA    H3412297   7.660   6.161   4.888  1.2305  1.0724 -1.4586
   73PVA    C1812298   7.643   6.184   5.184 -0.2854 -0.0888 -0.1350
   73PVA    H3512299   7.712   6.160   5.267 -0.0941  2.4461  0.5353
   73PVA    H3612300   7.592   6.091   5.158 -1.2357 -0.6939  3.3630
   73PVA    C1912301   7.534   6.282   5.252  0.2707 -0.6161  0.1824
   73PVA    H3712302   7.491   6.235   5.341 -3.3461  0.0815 -1.0179
   73PVA    H3812303   7.591   6.367   5.292 -5.7037  2.2530  4.0807
   73PVA    C2012304   7.405   6.320   5.179 -0.2531 -0.5276  0.2993
   73PVA    H3912305   7.353   6.225   5.162  0.2662 -1.0764  1.6615
   73PVA     O712306   7.436   6.381   5.052 -0.4413  0.0339  0.3672
   73PVA    H4012307   7.477   6.312   4.996 -1.0808 -1.8807  2.0962
   73PVA    C2112308   7.307   6.412   5.266 -0.3632  1.0794  0.1733
   73PVA    H4112309   7.323   6.515   5.230 -0.1700  1.5361  1.4953
   73PVA    H4212310   7.336   6.429   5.370  1.2501  1.9602 -0.3843
   73PVA    C2212311   7.158   6.359   5.246 -0.7144 -0.0129  0.0029
   73PVA    H4312312   7.134   6.330   5.143 -0.5929 -0.8808  0.2063
   73PVA    H4412313   7.142   6.265   5.301 -1.6351 -0.1805 -0.5377
   73PVA    C2312314   7.047   6.458   5.296 -0.4401  0.2801 -1.0630
   73PVA    H4512315   7.031   6.439   5.403 -0.3723 -0.2660 -1.1478
   73PVA     O812316   7.061   6.597   5.258 -1.0504  0.0234 -0.4833
   73PVA    H4612317   7.067   6.650   5.340  0.0034  1.5588 -1.5054
   73PVA    C2412318   6.908   6.414   5.248 -0.9864  0.8598  0.3732
   73PVA    H4712319   6.906   6.401   5.139  3.1479  3.6948 -0.2629
   73PVA    H4812320   6.902   6.311   5.285 -0.9407  1.3768  1.8756
   73PVA    C2512321   6.800   6.498   5.302 -0.0922  0.0322 -0.2825
   73PVA    H4912322   6.815   6.518   5.409  1.6808  3.1107 -0.9879
   73PVA    H5012323   6.789   6.597   5.257  2.5383  1.1712  1.2935
   73PVA    C2612324   6.667   6.422   5.284 -0.3729  0.1922  0.4732
   73PVA    H5112325   6.686   6.322   5.325 -2.9140 -1.3486 -1.7575
   73PVA     O912326   6.638   6.411   5.147  0.2360 -0.3196  0.4614
   73PVA    H5212327   6.542   6.393   5.137  0.6005 -1.2363 -2.6771
   73PVA    C2712328   6.555   6.501   5.357 -0.6277 -0.7321  0.1181
   73PVA    H5312329   6.555   6.590   5.292 -0.8807 -2.8561 -3.0204
   73PVA    H5412330   6.583   6.533   5.458  2.9505 -4.2436  0.4862
   73PVA    C2812331   6.426   6.424   5.380 -0.7893  0.6849  0.0412
   73PVA    H5512332   6.399   6.386   5.281  0.6662  0.7115 -0.3962
   73PVA    H5612333   6.449   6.336   5.442 -4.4027  1.8412  3.4309
   73PVA    C2912334   6.307   6.490   5.460  0.0974 -0.9989  0.9757
   73PVA    H5712335   6.312   6.591   5.418  5.5150 -1.0043  1.0014
   73PVA    O1012336   6.332   6.488   5.603  0.5666 -0.4898  0.4297
   73PVA    H5812337   6.255   6.457   5.654  1.7123 -1.3686  1.6647
   73PVA    C3012338   6.185   6.395   5.440 -1.7509 -0.4306  0.5325
   73PVA    H5912339   6.180   6.354   5.339 -0.6705  1.3816 -0.3006
   73PVA    H6012340   6.206   6.299   5.490 -4.5588 -0.3848  2.0289
   73PVA    C3112341   6.036   6.437   5.474  0.2286  0.0416 -0.0020
   73PVA    H6112342   5.979   6.354   5.517  1.2777 -1.1546 -0.8294
   73PVA    H6212343   5.978   6.464   5.385  0.1046  0.5866  0.2398
   73PVA    C3212344   6.029   6.557   5.567  0.7678 -0.3885  0.2428
   73PVA    H6312345   6.108   6.549   5.644  3.9381 -2.7395 -2.9178
   73PVA    O1112346   5.902   6.556   5.635  0.7589  0.0825  1.2326
   73PVA    H6412347   5.838   6.556   5.562  1.4479  2.5936  0.5303
   73PVA    C3312348   6.048   6.691   5.497 -0.6662  0.1229 -0.0389
   73PVA    H6512349   6.152   6.701   5.466 -0.4722 -1.7555 -0.0918
   73PVA    H6612350   6.002   6.707   5.398 -2.6358 -3.3787  0.1632
   73PVA    C3412351   5.990   6.812   5.570 -0.5983 -1.2667  0.2805
   73PVA    H6712352   6.000   6.901   5.507 -0.5884 -0.6410  1.1561
   73PVA    H6812353   5.880   6.809   5.571 -0.6412 -1.3659 -1.6206
   73PVA    C3512354   6.045   6.849   5.711 -1.0483  0.4198  0.6564
   73PVA    H6912355   6.151   6.840   5.740 -0.5365  0.7930 -1.0134
   73PVA    O1212356   5.988   6.760   5.799 -0.2795 -0.0258  0.0334
   73PVA    H7012357   5.931   6.701   5.747 -1.0437 -0.8814  1.7716
   73PVA    C3612358   6.016   6.999   5.736  0.1461  0.2551 -1.1247
   73PVA    H7112359   6.087   7.036   5.660 -0.3109 -0.8714 -2.1421
   73PVA    H7212360   5.912   7.021   5.709 -0.1665  1.7701  1.0520
   73PVA    C3712361   6.046   7.066   5.877 -0.0281  0.0936  0.1555
   73PVA    H7312362   6.133   7.035   5.937 -0.2161  2.2257  1.6452
   73PVA    H7412363   5.959   7.050   5.941  0.6781  3.1393  2.0579
   73PVA    C3812364   6.046   7.226   5.862 -0.4649 -0.3833 -0.2154
   73PVA    H7512365   6.068   7.259   5.759 -0.9215  0.2896 -0.1038
   73PVA    O1312366   6.145   7.260   5.949  0.5349 -0.1874  0.3062
   73PVA    H7612367   6.119   7.216   6.032  6.2406  1.6224  3.6546
   73PVA    C3912368   5.916   7.280   5.921  0.4108 -0.1164  0.6311
   73PVA    H7712369   5.881   7.250   6.020 -4.3193  2.6914  0.1053
   73PVA    H7812370   5.845   7.229   5.854  0.4354  0.3088  0.2750
   73PVA    C4012371   5.917   7.437   5.904 -1.1719  0.3211  0.3556
   73PVA    H7912372   5.980   7.475   5.986  0.4104 -2.8614  0.7417
   73PVA    H8012373   5.974   7.479   5.820  0.4226  2.2020  2.2262
   73PVA    C4112374   5.783   7.505   5.908 -0.7337 -1.5479 -0.8591
   73PVA    H8112375   5.755   7.498   6.014  0.0693  1.4026 -0.3608
   73PVA    O1412376   5.676   7.444   5.835  0.6208 -0.8045  0.6614
   73PVA    H8212377   5.670   7.350   5.861  0.9377 -0.5882  1.5601
   73PVA    C4212378   5.805   7.652   5.860 -0.5717 -0.1421  0.1539
   73PVA    H8312379   5.897   0.023   5.882  0.1983 -0.3877 -2.1129
   73PVA    H8412380   5.802   7.672   5.752 -2.6574 -0.4938  0.1062
   73PVA    C4312381   5.687   0.053   5.891  0.0717 -0.5005  0.6884
   73PVA    H8512382   5.593   0.015   5.850  1.4771 -3.2521 -0.2806
   73PVA    H8612383   5.688   0.076   5.999 -1.5417 -1.2718  0.8914
   73PVA    C4412384   5.697   0.185   5.806  0.4165 -0.0396  0.7276
   73PVA    H8712385   5.796   0.225   5.829  0.1101  0.7188  0.7508
   73PVA    O1512386   5.614   0.273   5.875  0.7943  0.5223  0.5804
   73PVA    H8812387   5.541   0.216   5.907 -2.1495  3.9640  0.6129
   73PVA    C4512388   5.682   0.190   5.648 -0.3194 -1.2685 -0.3641
   73PVA    H8912389   5.601   0.127   5.607 -2.3283  1.0812 -0.2576
   73PVA    H9012390   5.779   0.148   5.619 -0.2103 -2.1825  1.2148
   73PVA    C4612391   5.681   0.339   5.585  0.7803  0.2203 -1.1415
   73PVA    H9112392   5.758   0.396   5.636  0.1935 -0.2237  0.2887
   73PVA    H9212393   5.591   0.387   5.626  0.5905  2.2075 -3.6257
   73PVA    C4712394   5.695   0.351   5.437 -0.1728 -0.3954  1.3002
   73PVA    H9312395   5.626   0.284   5.385 -0.8044 -1.0489  2.9161
   73PVA    O1612396   5.830   0.332   5.412 -0.0011 -0.3857  0.9148
   73PVA    H9412397   5.839   0.372   5.324  2.6126 -0.7720  0.9313
   73PVA    C4812398   5.661   0.497   5.382 -0.3921  0.1627 -0.2211
   73PVA    H9512399   5.554   0.495   5.360 -0.7684  2.3593  1.0295
   73PVA    H9612400   5.670   0.570   5.464  3.3704  0.8620 -1.0649
   73PVA    C4912401   5.730   0.559   5.262 -0.0394  0.5405 -0.5722
   73PVA    H9712402   5.719   0.503   5.168  1.2340 -1.5258  0.4457
   73PVA    H9812403   5.839   0.566   5.273 -0.0559  3.9721 -1.3195
   73PVA    C5012404   5.676   0.706   5.241 -0.7353 -0.0516  1.0594
   73PVA    H9912405   5.705   0.758   5.333 -1.2131  2.5873 -0.1835
   73PVA    O1712406   5.538   0.701   5.228 -0.8126 -0.3807  0.3583
   73PVA   H10012407   5.517   0.796   5.239  3.4288  0.5959  1.6040
   73PVA    C5112408   5.742   0.782   5.127 -0.1584  0.7879  1.2768
   73PVA   H10112409   5.850   0.762   5.134 -0.3284 -2.4011 -2.0548
   73PVA   H10212410   5.722   0.726   5.035  4.8230 -2.4139  1.7413
   74PVA     C112411   1.510   4.368   2.843  0.3169 -0.2857 -0.1677
   74PVA     H112412   1.545   4.472   2.845 -0.8244  0.1823  3.3955
   74PVA     H212413   1.543   4.326   2.939  1.6429  1.1561  0.0472
   74PVA     C212414   1.590   4.317   2.728  0.0471  0.8083  0.3511
   74PVA     H312415   1.637   4.408   2.688 -0.9817  3.4390  4.4545
   74PVA     O112416   1.509   4.242   2.628  0.0754 -0.0210 -0.0690
   74PVA     H412417   1.422   4.224   2.668  0.9683 -2.8406  0.8200
   74PVA     C312418   1.693   4.225   2.795  1.0051 -0.4353 -0.4982
   74PVA     H512419   1.635   4.153   2.853 -2.3329  1.3499 -1.3626
   74PVA     H612420   1.749   4.279   2.872 -0.0732 -0.8614  0.6154
   74PVA     C412421   1.800   4.149   2.709  0.2915 -0.1736  0.6965
   74PVA     H712422   1.745   4.083   2.641 -0.1675  1.1961 -0.3273
   74PVA     H812423   1.865   4.219   2.655  3.0471 -3.2344 -0.2500
   74PVA     C512424   1.891   4.070   2.802 -0.5054 -0.7420 -0.9927
   74PVA     H912425   1.870   4.103   2.905 -2.4642  1.9132 -2.1264
   74PVA     O212426   1.846   3.936   2.786  1.1775  0.9805  0.2224
   74PVA    H1012427   1.924   3.894   2.746  0.3095 -0.4056 -0.0777
   74PVA     C612428   2.047   4.068   2.780  0.6452 -0.9750 -0.4781
   74PVA    H1112429   2.091   4.167   2.763 -0.1505 -0.0884  2.2159
   74PVA    H1212430   2.082   4.028   2.684 -0.3275 -1.4422 -0.6510
   74PVA     C712431   2.118   4.019   2.908 -0.9177  0.0050  0.2715
   74PVA    H1312432   2.113   4.097   2.984 -1.0030 -3.0227  3.6416
   74PVA    H1412433   2.071   3.925   2.941 -0.5851 -0.2518  0.0251
   74PVA     C812434   2.269   4.000   2.895 -0.0309 -0.0136 -0.5105
   74PVA    H1512435   2.310   4.091   2.849 -2.1216  0.5519 -1.3731
   74PVA     O312436   2.280   3.894   2.808 -0.0144 -0.3218 -0.2570
   74PVA    H1612437   2.346   3.901   2.736  2.3228 -2.7771  1.4102
   74PVA     C912438   2.362   3.987   3.022 -0.3806 -0.0516  1.5026
   74PVA    H1712439   2.348   3.886   3.063  1.5716 -1.1240 -0.2870
   74PVA    H1812440   2.330   4.066   3.091  1.5695  1.4474  0.8014
   74PVA    C1012441   2.522   4.002   3.003  1.0687  0.2152  0.5733
   74PVA    H1912442   2.546   3.907   2.954 -3.9003 -0.1777 -1.6454
   74PVA    H2012443   2.540   4.088   2.938 -0.7105 -1.4626 -2.3490
   74PVA    C1112444   2.612   4.017   3.136 -0.5497 -0.3560  0.2439
   74PVA    H2112445   2.589   3.930   3.199  0.6586  0.5197  1.9956
   74PVA     O412446   2.563   4.138   3.197  0.3001 -0.5758  0.0061
   74PVA    H2212447   2.495   4.111   3.261  0.7097 -2.2884 -0.2388
   74PVA    C1212448   2.773   4.036   3.118 -0.1705 -0.3091 -0.6285
   74PVA    H2312449   2.773   4.141   3.084 -0.3102 -0.5578 -1.4338
   74PVA    H2412450   2.817   3.968   3.044  2.5340 -1.9146  2.2503
   74PVA    C1312451   2.872   4.029   3.239  0.1382 -0.5342  0.2548
   74PVA    H2512452   2.877   4.131   3.279 -0.8190 -1.1142  1.9280
   74PVA    H2612453   2.833   3.968   3.320 -0.8266 -2.4987 -1.5874
   74PVA    C1412454   3.025   3.989   3.216  0.1589 -0.3154 -0.3664
   74PVA    H2712455   3.060   3.999   3.320  2.9755  1.0676 -1.3649
   74PVA     O512456   3.101   4.078   3.140  0.1132 -0.1929 -0.1434
   74PVA    H2812457   3.171   4.032   3.091  2.5764  0.0374  2.8385
   74PVA    C1512458   3.046   3.847   3.168  0.1522 -0.5228 -0.3361
   74PVA    H2912459   2.983   3.826   3.080  0.2122 -2.1633 -0.0185
   74PVA    H3012460   3.021   3.792   3.260 -0.6234  3.2483  1.9181
   74PVA    C1612461   3.198   3.811   3.138  0.8123 -0.1001  0.3373
   74PVA    H3112462   3.226   3.856   3.042  1.3939 -0.7003  0.2160
   74PVA    H3212463   3.262   3.843   3.222  1.1311  0.6648 -0.1920
   74PVA    C1712464   3.238   3.669   3.117  0.7406  0.4546  0.2364
   74PVA    H3312465   3.160   3.616   3.172  0.0961  2.7724  1.6851
   74PVA     O612466   3.225   3.629   2.970  0.1437 -0.6594 -0.3662
   74PVA    H3412467   3.240   3.532   2.972 -0.3879 -0.8069 -2.2697
   74PVA    C1812468   3.385   3.629   3.156  0.3238  0.6558  0.8777
   74PVA    H3512469   3.441   3.698   3.092  1.4252 -2.4245 -1.7817
   74PVA    H3612470   3.413   3.666   3.255  0.0623 -0.7601  1.5070
   74PVA    C1912471   3.437   3.493   3.117  0.2275  0.2617 -0.7239
   74PVA    H3712472   3.367   3.411   3.137  2.0802 -1.2319 -0.2087
   74PVA    H3812473   3.439   3.509   3.009 -4.5997  1.9515 -0.8326
   74PVA    C2012474   3.580   3.455   3.166  0.1285 -0.8093 -0.0150
   74PVA    H3912475   3.635   3.549   3.151  1.1806 -1.3829  0.1592
   74PVA     O712476   3.637   3.358   3.079  0.4078 -0.0493 -0.8165
   74PVA    H4012477   3.689   3.299   3.136  1.0242  2.6455  1.6209
   74PVA    C2112478   3.565   3.412   3.330  0.1869  0.6877  0.8880
   74PVA    H4112479   3.458   3.423   3.354  0.0038  2.0235 -0.3798
   74PVA    H4212480   3.596   3.501   3.386  4.5601 -0.8341  1.2196
   74PVA    C2212481   3.616   3.257   3.374  0.2110  0.0405  0.4904
   74PVA    H4312482   3.554   3.172   3.341  1.7331 -1.9816  2.4679
   74PVA    H4412483   3.717   3.242   3.333  1.5206  1.9499  2.7762
   74PVA    C2312484   3.630   3.251   3.520  0.3701 -1.4966 -0.9307
   74PVA    H4512485   3.669   3.351   3.539  5.3215 -3.1099 -1.2934
   74PVA     O812486   3.502   3.237   3.586  0.0629 -0.1996 -0.1858
   74PVA    H4612487   3.455   3.312   3.626  5.8960  2.1834  3.4374
   74PVA    C2412488   3.733   3.147   3.548  0.2634  0.2215 -0.4043
   74PVA    H4712489   3.709   3.057   3.491 -3.6128 -1.7474  3.7620
   74PVA    H4812490   3.829   3.182   3.508  3.2072 -3.3347  2.7703
   74PVA    C2512491   3.766   3.103   3.691 -0.0109  0.1727 -0.2547
   74PVA    H4912492   3.673   3.093   3.749  1.4157  3.5821  2.9734
   74PVA    H5012493   3.801   3.184   3.756 -0.8837  0.2313  0.1658
   74PVA    C2612494   3.852   2.981   3.707  0.4710  0.5457  0.8440
   74PVA    H5112495   3.863   2.926   3.613 -0.8073  1.4964  0.1138
   74PVA     O912496   3.774   2.888   3.783  0.4171  0.0848 -0.4018
   74PVA    H5212497   3.821   2.804   3.775  3.8565  1.8214 -0.2864
   74PVA    C2712498   3.988   3.000   3.780  0.5588  0.3049  0.1613
   74PVA    H5312499   3.969   3.048   3.877  0.5764 -0.5381  0.5874
   74PVA    H5412500   4.051   3.072   3.724 -0.8343 -0.1368 -2.1260
   74PVA    C2812501   4.073   2.867   3.787 -0.0314  0.2725 -0.9773
   74PVA    H5512502   4.096   2.818   3.692  2.5500  3.5716 -2.2370
   74PVA    H5612503   4.021   2.793   3.849 -0.0158  1.6295  0.7374
   74PVA    C2912504   4.215   2.882   3.855 -0.2571 -0.3541 -0.9731
   74PVA    H5712505   4.258   2.982   3.844  3.1889 -1.4056  1.1442
   74PVA    O1012506   4.189   2.838   3.994 -0.5708 -1.3707  0.0523
   74PVA    H5812507   4.178   2.742   3.992  0.1680 -1.5134  1.2515
   74PVA    C3012508   4.327   2.812   3.782  0.4345  0.2082  0.0524
   74PVA    H5912509   4.294   2.709   3.769 -1.1377  0.8706 -1.7386
   74PVA    H6012510   4.337   2.851   3.680  0.8978 -2.7502 -1.1223
   74PVA    C3112511   4.461   2.824   3.865  0.4084  0.4639  1.2476
   74PVA    H6112512   4.474   2.929   3.835 -1.3556  0.2522 -0.4799
   74PVA    H6212513   4.447   2.824   3.973  0.0185  0.1081  1.1969
   74PVA    C3212514   4.581   2.747   3.806  0.0627 -0.1327 -0.0981
   74PVA    H6312515   4.560   2.645   3.771  1.6305 -2.4015  4.6319
   74PVA    O1112516   4.650   2.829   3.718 -0.1781  0.3087  1.3749
   74PVA    H6412517   4.696   2.896   3.771  1.3935  1.4090 -1.1781
   74PVA    C3312518   4.686   2.732   3.925 -0.4208 -0.8939 -1.0088
   74PVA    H6512519   4.634   2.689   4.011 -3.8389 -1.3027 -3.0732
   74PVA    H6612520   4.722   2.832   3.954 -2.3430  0.2803 -2.4149
   74PVA    C3412521   4.800   2.638   3.887 -0.0229 -0.6064  0.1479
   74PVA    H6712522   4.774   2.538   3.852 -0.4280  0.1792 -1.9008
   74PVA    H6812523   4.847   2.679   3.797 -2.5867  3.4181  0.4126
   74PVA    C3512524   4.912   2.603   3.999  0.1315  0.0703  0.9018
   74PVA    H6912525   4.858   2.554   4.081  2.5181 -3.8130  0.4451
   74PVA    O1212526   4.984   2.719   4.042 -0.0273  1.4106  1.0963
   74PVA    H7012527   5.017   2.694   4.130 -1.2699 -0.5489  1.0837
   74PVA    C3612528   5.018   2.507   3.936  0.1570 -0.2169  0.2958
   74PVA    H7112529   4.970   2.445   3.860  1.6292 -2.2658  0.9282
   74PVA    H7212530   5.093   2.566   3.882 -3.7520  0.8261 -4.6278
   74PVA    C3712531   5.099   2.433   4.046  0.6946  0.1420 -0.0241
   74PVA    H7312532   5.136   2.497   4.128  0.5388 -0.0583  0.2049
   74PVA    H7412533   5.031   2.360   4.092  0.5738 -0.2618 -0.8253
   74PVA    C3812534   5.215   2.354   3.983  0.2515 -0.3857  0.4417
   74PVA    H7512535   5.160   2.318   3.895 -1.4652  2.1876  0.3564
   74PVA    O1312536   5.314   2.445   3.937  1.0230  0.0938  0.6632
   74PVA    H7612537   5.318   2.462   3.841  0.6008 -2.1581  0.1772
   74PVA    C3912538   5.271   2.225   4.063  0.2120  0.4980 -0.4742
   74PVA    H7712539   5.353   2.181   4.005 -0.9292  1.1543 -2.6603
   74PVA    H7812540   5.200   2.143   4.049 -3.6282  3.5015 -0.2695
   74PVA    C4012541   5.326   2.244   4.215  0.5775  0.6661 -0.5389
   74PVA    H7912542   5.353   2.349   4.231  0.1834  0.8466 -1.0223
   74PVA    H8012543   5.237   2.238   4.279  0.7377  1.5009 -0.2321
   74PVA    C4112544   5.438   2.146   4.258 -0.6085 -0.3112 -0.1899
   74PVA    H8112545   5.534   2.185   4.223  0.0021 -3.9934 -3.3269
   74PVA    O1412546   5.428   2.026   4.186  0.6662  0.3566 -0.2613
   74PVA    H8212547   5.362   2.020   4.116 -0.4339  2.8456  0.4283
   74PVA    C4212548   5.446   2.118   4.418 -0.6317 -1.6172  0.1176
   74PVA    H8312549   5.397   2.020   4.425 -0.9440 -1.3771  1.9040
   74PVA    H8412550   5.380   2.189   4.470  0.4105 -0.4873 -0.0817
   74PVA    C4312551   5.573   2.086   4.485  0.0392 -1.0036 -1.1345
   74PVA    H8512552   5.639   2.168   4.454 -1.4528  0.1716 -1.3486
   74PVA    H8612553   5.612   1.998   4.432  0.4290 -0.4910 -1.7277
   74PVA    C4412554   5.557   2.062   4.640  0.9767  0.0229  0.0291
   74PVA    H8712555   5.457   2.023   4.662  1.3857 -2.5260 -2.0898
   74PVA    O1512556   5.579   2.168   4.719 -0.3255 -1.1785 -0.5681
   74PVA    H8812557   5.646   2.227   4.682 -2.8271  2.2755 -0.0635
   74PVA    C4512558   5.654   1.952   4.699 -0.8806  0.3268  0.4231
   74PVA    H8912559   5.624   1.873   4.629 -0.4584  0.5374  0.0003
   74PVA    H9012560   5.759   1.974   4.678 -0.2802 -1.3823  1.4277
   74PVA    C4612561   5.638   1.914   4.854  0.8495  0.2562 -0.9753
   74PVA    H9112562   5.637   2.005   4.915 -3.1107 -0.6970  0.7048
   74PVA    H9212563   5.538   1.876   4.877  0.0912  2.1936 -0.9264
   74PVA    C4712564   5.723   1.792   4.887 -0.1890 -0.5681 -1.1272
   74PVA    H9312565   5.791   1.766   4.805 -2.0718 -3.0060 -2.0615
   74PVA    O1612566   5.791   1.847   4.997 -1.0319  0.4649  0.5732
   74PVA    H9412567   5.832   1.765   5.031  0.0683  0.6650 -0.2038
   74PVA    C4812568   5.652   1.666   4.928  0.5230 -0.8442 -0.5517
   74PVA    H9512569   5.638   1.667   5.037  3.3581 -1.2454 -0.1037
   74PVA    H9612570   5.549   1.667   4.892  0.8235  0.3720 -1.4358
   74PVA    C4912571   5.702   1.526   4.906  1.3602 -0.1496 -0.2415
   74PVA    H9712572   5.756   1.523   4.811 -0.0916  0.5194 -1.1163
   74PVA    H9812573   5.606   1.478   4.887  0.9597  0.7389 -0.5204
   74PVA    C5012574   5.758   1.435   5.017 -0.3460  0.0028 -0.1072
   74PVA    H9912575   5.708   1.445   5.114 -2.8822 -3.5899 -0.8656
   74PVA    O1712576   5.895   1.460   5.033 -0.8840 -0.6422 -0.4201
   74PVA   H10012577   5.924   1.410   5.111 -4.5302 -0.6418  1.1033
   74PVA    C5112578   5.745   1.281   4.985 -0.4951 -0.1417  0.1538
   74PVA   H10112579   5.638   1.259   4.972 -0.4569  0.6203 -1.6485
   74PVA   H10212580   5.786   1.247   4.889  0.2383  2.4181 -0.5055
   75PVA     C112581   1.266   4.651   3.111 -0.4368 -0.1554  0.1716
   75PVA     H112582   1.309   4.594   3.194  6.0157  0.2405 -2.3745
   75PVA     H212583   1.160   4.623   3.115 -0.3602 -0.3989  3.1393
   75PVA     C212584   1.269   4.807   3.145  0.4098  0.0101  1.2841
   75PVA     H312585   1.236   4.880   3.070  0.7025 -2.4047 -1.4154
   75PVA     O112586   1.400   4.856   3.169  0.2393 -0.1373 -0.1890
   75PVA     H412587   1.464   4.804   3.117  0.5000  1.4087 -1.4847
   75PVA     C312588   1.191   4.843   3.281  0.3568  0.3957  0.4001
   75PVA     H512589   1.257   4.797   3.355  2.2628  0.8545 -0.9480
   75PVA     H612590   1.084   4.819   3.283 -0.6703  3.4185 -3.8107
   75PVA     C412591   1.190   4.994   3.316 -0.1991  0.2033 -0.7342
   75PVA     H712592   1.289   5.040   3.302 -0.4288  0.7430 -0.6274
   75PVA     H812593   1.132   5.033   3.232 -0.3802  0.2498 -0.5895
   75PVA     C512594   1.122   5.030   3.462 -0.5524 -0.5537  0.5789
   75PVA     H912595   1.110   5.139   3.454  0.4874 -0.5669 -2.1019
   75PVA     O212596   1.218   4.988   3.552 -0.1509 -0.4895  0.0449
   75PVA    H1012597   1.271   4.921   3.506 -1.5663  0.1076 -2.6965
   75PVA     C612598   0.992   4.969   3.497  0.7403  0.1448  0.7201
   75PVA    H1112599   1.015   4.874   3.547  2.4028  1.2881  2.2512
   75PVA    H1212600   0.921   4.948   3.416 -1.4617  0.4865  2.4473
   75PVA     C712601   0.912   5.059   3.605  0.0555  0.6581  0.0048
   75PVA    H1312602   0.955   5.076   3.705 -0.7078  0.2743  0.4057
   75PVA    H1412603   0.922   5.164   3.576 -4.1723  0.5165 -2.8255
   75PVA     C812604   0.757   5.011   3.630  0.3297  1.0260 -0.2467
   75PVA    H1512605   0.774   4.914   3.680  0.7058  0.1602 -1.9962
   75PVA     O312606   0.696   5.003   3.497  0.1884 -0.2215 -1.0416
   75PVA    H1612607   0.675   4.908   3.490 -2.4134  0.3128 -1.5737
   75PVA     C912608   0.666   5.100   3.717  0.5632 -0.5965 -1.1071
   75PVA    H1712609   0.692   5.200   3.681  2.5197 -1.1911 -1.4522
   75PVA    H1812610   0.706   5.096   3.819 -0.9581 -1.1424 -0.5051
   75PVA    C1012611   0.504   5.080   3.712 -1.1009 -0.5986  0.4584
   75PVA    H1912612   0.461   5.089   3.611 -0.6812  1.4319  0.4139
   75PVA    H2012613   0.475   4.980   3.746 -2.6040  0.0035  0.9992
   75PVA    C1112614   0.426   5.181   3.799  0.7661 -0.4590  0.4204
   75PVA    H2112615   0.504   5.208   3.871  0.7711  2.7101 -0.6257
   75PVA     O412616   0.378   5.295   3.719  0.2894  0.2088 -0.0418
   75PVA    H2212617   0.410   5.375   3.763  1.2646 -0.3850  0.3435
   75PVA    C1212618   0.308   5.138   3.895  0.2459 -0.8852 -0.0739
   75PVA    H2312619   0.340   5.043   3.941  0.3512 -1.3377 -1.0665
   75PVA    H2412620   0.288   5.224   3.960 -0.9458  0.7972 -2.5329
   75PVA    C1312621   0.171   5.104   3.822  0.9250  0.7163 -1.1538
   75PVA    H2512622   0.192   5.021   3.753  3.6995  0.3392 -0.0014
   75PVA    H2612623   0.130   5.192   3.772 -0.2629  1.8194  1.5808
   75PVA    C1412624   0.071   5.075   3.939  1.4586 -0.3620 -0.0356
   75PVA    H2712625   0.088   5.164   4.000  0.1393  0.7475 -1.2253
   75PVA     O512626   0.100   4.950   4.001 -0.0229 -0.6117 -0.3116
   75PVA    H2812627   0.058   4.973   4.085 -3.9143  0.4512 -2.2966
   75PVA    C1512628   7.687   5.069   3.887 -0.7857  0.5018  0.6097
   75PVA    H2912629   7.676   4.976   3.830 -1.3797 -1.1780  3.2717
   75PVA    H3012630   7.678   5.155   3.820 -3.6403 -0.3986 -0.3031
   75PVA    C1612631   7.557   5.057   3.982 -0.2560  0.0811 -1.3180
   75PVA    H3112632   7.473   5.024   3.921  0.7086 -1.7386 -1.7341
   75PVA    H3212633   7.574   4.973   4.052  0.6721 -0.0018 -1.6245
   75PVA    C1712634   7.550   5.193   4.069  0.2752 -0.5884 -0.3427
   75PVA    H3312635   7.624   5.198   4.150  2.9169  4.3983 -2.5726
   75PVA     O612636   7.553   5.311   3.974  0.4376  0.1283 -0.0348
   75PVA    H3412637   7.459   5.311   3.950 -0.2430 -2.0914  2.2135
   75PVA    C1812638   7.418   5.216   4.147 -0.6172  0.7899  1.1147
   75PVA    H3512639   7.372   5.129   4.195 -4.1491  3.7634  3.6859
   75PVA    H3612640   7.338   5.218   4.072 -3.7626  1.8270  4.2349
   75PVA    C1912641   7.382   5.339   4.235  0.2799  0.6235 -0.1188
   75PVA    H3712642   7.351   5.432   4.186 -0.7843 -0.0547 -0.7905
   75PVA    H3812643   7.307   5.301   4.306  0.3310  2.7178  1.1309
   75PVA    C2012644   7.508   5.370   4.332  0.5305  0.5976 -0.1619
   75PVA    H3912645   7.603   5.387   4.281  0.4373 -1.3874 -1.1003
   75PVA     O712646   7.557   5.260   4.407  0.1074  0.2245 -0.0742
   75PVA    H4012647   7.565   5.305   4.493 -2.1678 -0.2400  0.4305
   75PVA    C2112648   7.459   5.472   4.432  0.8587  0.2128 -0.6130
   75PVA    H4112649   7.459   5.440   4.537  3.0098  1.9370 -0.0106
   75PVA    H4212650   7.356   5.505   4.416  0.2370  1.1993  3.9559
   75PVA    C2212651   7.538   5.600   4.438  0.8923  0.5388 -0.2096
   75PVA    H4312652   7.629   5.584   4.496 -0.3728  1.9553  2.3404
   75PVA    H4412653   7.552   5.609   4.330  0.8050  0.0314 -0.2663
   75PVA    C2312654   7.456   5.722   4.510 -0.5787 -0.6625  0.1173
   75PVA    H4512655   7.412   5.684   4.603  0.5853 -1.0467  0.5287
   75PVA     O812656   7.375   5.783   4.421  0.4846  0.3906 -0.9368
   75PVA    H4612657   7.406   5.756   4.333  0.1209 -4.3297  0.1157
   75PVA    C2412658   7.555   5.823   4.566 -0.5347 -1.0195 -0.6241
   75PVA    H4712659   7.491   5.882   4.633 -3.7762 -1.1797 -3.2864
   75PVA    H4812660   7.620   5.753   4.619  0.9792 -0.5046 -1.7431
   75PVA    C2512661   7.633   5.925   4.465 -0.9602  0.5752  0.6505
   75PVA    H4912662   7.700   5.872   4.397  0.6714  2.5950  0.5859
   75PVA    H5012663   7.554   5.964   4.400  0.3602  0.6797 -0.9567
   75PVA    C2612664   7.711   6.045   4.519 -1.6728 -0.6735  0.0892
   75PVA    H5112665   0.046   6.007   4.538 -1.1347  0.3292 -0.6230
   75PVA     O912666   7.634   6.095   4.628 -0.1733  0.3602  0.8640
   75PVA    H5212667   7.658   6.188   4.645  0.9420  0.3418 -0.4538
   75PVA    C2712668   7.749   6.149   4.408  0.5417  0.2277  0.4793
   75PVA    H5312669   7.669   6.188   4.344  0.6116 -2.8167 -1.6775
   75PVA    H5412670   0.038   6.087   4.336 -1.4258  0.0851 -0.9563
   75PVA    C2812671   0.085   6.253   4.461  0.5861 -0.8026  1.1896
   75PVA    H5512672   0.062   6.340   4.400  0.1231  0.3319  2.8937
   75PVA    H5612673   0.069   6.283   4.566 -1.9592  1.2879  0.3015
   75PVA    C2912674   0.230   6.221   4.434  1.3832  0.3673 -0.0469
   75PVA    H5712675   0.215   6.177   4.335  0.1432 -4.0514  1.8616
   75PVA    O1012676   0.284   6.128   4.531 -0.5123  0.2583  0.1764
   75PVA    H5812677   0.326   6.152   4.615  3.0475  0.1935 -1.3699
   75PVA    C3012678   0.320   6.356   4.409  0.2060 -0.1395 -0.2933
   75PVA    H5912679   0.256   6.437   4.372 -0.9712 -0.0625  1.7962
   75PVA    H6012680   0.369   6.381   4.504 -0.8369  0.5845  0.0760
   75PVA    C3112681   0.431   6.325   4.305  0.1852  0.2729 -0.1292
   75PVA    H6112682   0.382   6.296   4.211  3.5245 -2.5756 -1.1928
   75PVA    H6212683   0.477   6.229   4.328  1.0709  0.0404 -2.5741
   75PVA    C3212684   0.536   6.426   4.286  0.3477 -0.7307  0.3258
   75PVA    H6312685   0.621   6.368   4.250  1.0677 -1.2088  2.6230
   75PVA    O1112686   0.582   6.459   4.414 -0.2153  0.5592  0.0565
   75PVA    H6412687   0.570   6.555   4.428  3.1310  1.4426 -1.9154
   75PVA    C3312688   0.513   6.546   4.196  0.1347 -0.3504  0.5584
   75PVA    H6512689   0.568   6.632   4.237 -0.2065 -0.0660  0.4237
   75PVA    H6612690   0.409   6.576   4.208  0.1592  0.2288 -0.5408
   75PVA    C3412691   0.547   6.524   4.050 -0.2304 -0.5832 -0.7994
   75PVA    H6712692   0.646   6.480   4.038  0.6026  0.9443  0.1423
   75PVA    H6812693   0.487   6.445   4.004 -1.7892  1.9233 -3.4478
   75PVA    C3512694   0.515   6.640   3.948 -0.8822  0.2724  0.5621
   75PVA    H6912695   0.613   6.689   3.959 -1.6363  1.8571  0.5073
   75PVA    O1212696   0.415   6.718   4.005  0.3140 -0.2237  0.0245
   75PVA    H7012697   0.450   6.790   4.060 -2.6249  1.4335 -0.0889
   75PVA    C3612698   0.484   6.584   3.806  0.6679 -0.4573 -0.1739
   75PVA    H7112699   0.571   6.535   3.761 -1.0076  0.0051 -4.3892
   75PVA    H7212700   0.394   6.521   3.808  1.0079 -0.9575 -0.3850
   75PVA    C3712701   0.428   6.689   3.710 -0.3954  0.5434  0.7925
   75PVA    H7312702   0.348   6.752   3.751 -1.8899 -2.0699  2.1570
   75PVA    H7412703   0.508   6.761   3.692  3.3496 -3.4404 -0.3187
   75PVA    C3812704   0.390   6.642   3.564 -0.3384  0.4216 -0.3727
   75PVA    H7512705   0.312   6.565   3.575  2.3732 -2.8057 -1.9440
   75PVA    O1312706   0.499   6.558   3.523  0.2223  0.2455 -0.3378
   75PVA    H7612707   0.580   6.612   3.523  0.6888 -0.4269 -1.2635
   75PVA    C3912708   0.380   6.758   3.460 -0.1276  0.4568 -1.3620
   75PVA    H7712709   0.472   6.788   3.407  0.3950  1.9079  0.2585
   75PVA    H7812710   0.346   6.841   3.523 -2.5173 -2.1644  1.0448
   75PVA    C4012711   0.267   6.739   3.363  0.1305 -0.5172 -0.6682
   75PVA    H7912712   0.275   6.646   3.306  0.7123 -1.7047  1.2370
   75PVA    H8012713   0.181   6.715   3.428  0.8246 -0.1944  0.3979
   75PVA    C4112714   0.231   6.871   3.294  0.2037 -1.4858 -0.2098
   75PVA    H8112715   0.325   6.922   3.268 -0.3014 -0.0579  0.6492
   75PVA    O1412716   0.164   6.960   3.389  0.1196  0.1688 -0.1490
   75PVA    H8212717   0.123   7.017   3.322 -0.5158  1.3793  1.2103
   75PVA    C4212718   0.145   6.861   3.175  0.7357  0.4886 -0.9671
   75PVA    H8312719   0.191   6.814   3.088 -0.7256 -2.5634 -0.2461
   75PVA    H8412720   0.060   6.804   3.215  1.1698  0.9477  0.7198
   75PVA    C4312721   0.099   7.010   3.136  1.4396  0.7707  0.4164
   75PVA    H8512722   0.021   7.033   3.209  2.4652  0.6692  1.5826
   75PVA    H8612723   0.046   6.989   3.042  1.9162  3.6667 -0.6142
   75PVA    C4412724   0.181   7.126   3.087 -0.5157  1.2049  0.3517
   75PVA    H8712725   0.249   7.082   3.013 -2.5482 -2.3219  0.3802
   75PVA    O1512726   0.243   7.183   3.200 -0.2962 -0.2885 -0.1603
   75PVA    H8812727   0.196   7.265   3.221  1.1488  1.0040 -1.6963
   75PVA    C4512728   0.098   7.240   3.029  0.6235  1.1751  0.9261
   75PVA    H8912729   0.051   7.206   2.936  2.6461 -0.5285  0.4464
   75PVA    H9012730   0.017   7.243   3.102 -1.1530  1.8906 -0.9660
   75PVA    C4612731   0.160   7.375   2.998 -0.6274  0.2541  0.4185
   75PVA    H9112732   0.222   7.369   2.907 -0.0609 -3.4937  0.8918
   75PVA    H9212733   0.234   7.403   3.074  0.3382 -2.8295  0.7487
   75PVA    C4712734   0.058   7.479   2.980  1.1611 -0.2106 -0.2693
   75PVA    H9312735   7.721   7.440   2.992  0.7716  1.2393  1.6499
   75PVA    O1612736   0.078   7.584   3.078  0.1197  0.4269 -0.7500
   75PVA    H9412737   0.063   7.668   3.031 -1.2287  0.9374  0.4969
   75PVA    C4812738   0.057   7.554   2.847 -0.3567  0.3716 -0.0721
   75PVA    H9512739   0.126   7.636   2.871 -0.3723  0.6329 -0.8968
   75PVA    H9612740   0.105   7.482   2.780 -0.7528 -2.7102  2.6879
   75PVA    C4912741   7.676   7.585   2.789  0.4827  0.1958  1.0998
   75PVA    H9712742   7.590   7.547   2.846 -1.5982  1.1245 -1.2795
   75PVA    H9812743   7.666   7.517   2.704 -2.3526  1.6200  0.1611
   75PVA    C5012744   7.666   0.046   2.763 -0.3507 -0.9441 -0.3989
   75PVA    H9912745   7.758   0.081   2.714  3.1066 -0.5103  5.4523
   75PVA    O1712746   7.653   0.102   2.903 -0.3210 -0.5080  0.8778
   75PVA   H10012747   7.626   0.193   2.882  0.9219  0.1128  1.8135
   75PVA    C5112748   7.538   0.081   2.688  0.2189  0.3604  0.2912
   75PVA   H10112749   7.452   0.051   2.749  1.0386 -1.0085  0.8330
   75PVA   H10212750   7.538   0.022   2.595  3.0298  3.5221 -1.9620
   76PVA     C112751   6.109   1.253   5.439 -0.3846  0.2414 -0.1650
   76PVA     H112752   6.070   1.151   5.426  3.4138 -1.3419 -0.4167
   76PVA     H212753   6.208   1.247   5.486  0.5785 -3.8992 -2.2144
   76PVA     C212754   6.128   1.312   5.297  0.0844 -0.8407 -0.1713
   76PVA     H312755   6.190   1.232   5.254  1.5649  0.4617 -0.5496
   76PVA     O112756   6.003   1.342   5.230 -0.1227  0.0108 -0.6758
   76PVA     H412757   5.937   1.273   5.247 -0.7155  1.3209  3.7181
   76PVA     C312758   6.216   1.444   5.283 -0.0328  0.8590 -1.6724
   76PVA     H512759   6.317   1.425   5.322 -0.0424 -2.5058 -2.9281
   76PVA     H612760   6.167   1.527   5.334  1.3116  0.0693  1.1202
   76PVA     C412761   6.252   1.469   5.138 -0.9307 -0.2129 -0.5729
   76PVA     H712762   6.276   1.385   5.072  1.8663 -0.2535  0.3856
   76PVA     H812763   6.167   1.514   5.084 -1.0627 -0.1896 -0.3498
   76PVA     C512764   6.373   1.565   5.131  1.0571 -0.2116  0.5653
   76PVA     H912765   6.347   1.652   5.192 -3.9390  0.3445 -1.8908
   76PVA     O212766   6.483   1.500   5.190 -0.0550  1.4073 -0.1109
   76PVA    H1012767   6.475   1.496   5.286  0.0452  3.4798  0.0365
   76PVA     C612768   6.402   1.614   4.991  0.4456  0.8450 -0.3094
   76PVA    H1112769   6.421   1.538   4.914 -0.3766  0.4896 -0.1787
   76PVA    H1212770   6.308   1.669   4.975 -1.3283 -2.1342 -1.2077
   76PVA     C712771   6.509   1.722   4.989  0.2026 -0.5247 -0.0231
   76PVA    H1312772   6.585   1.661   5.039 -0.3249 -0.2236  1.2072
   76PVA    H1412773   6.487   1.811   5.049  4.5679  1.8975 -1.6063
   76PVA     C812774   6.566   1.766   4.847  0.3053  0.0900 -0.2203
   76PVA    H1512775   6.523   1.691   4.779  0.8916 -1.6534  1.2399
   76PVA     O312776   6.708   1.759   4.839  0.5270 -0.0738  0.4506
   76PVA    H1612777   6.748   1.844   4.865  1.2792 -0.3956  0.3851
   76PVA     C912778   6.513   1.902   4.804  0.2523  0.5592 -0.6705
   76PVA    H1712779   6.537   1.979   4.878 -2.1529 -0.4779  1.3336
   76PVA    H1812780   6.404   1.899   4.811  0.3775 -1.1946  2.4146
   76PVA    C1012781   6.572   1.937   4.664  0.4524  0.1856  0.8475
   76PVA    H1912782   6.681   1.943   4.669  0.3878  0.5446  3.7515
   76PVA    H2012783   6.536   1.854   4.602 -5.0908  1.9421  1.1065
   76PVA    C1112784   6.503   2.054   4.606  0.4865 -0.7276  0.7506
   76PVA    H2112785   6.396   2.072   4.621  0.3431  1.5090 -2.1818
   76PVA     O412786   6.564   2.175   4.657 -0.4644  0.7812 -0.6279
   76PVA    H2212787   6.502   2.247   4.637  1.5559  3.3963  1.6717
   76PVA    C1212788   6.521   2.057   4.452  0.7401 -0.4038  0.1022
   76PVA    H2312789   6.483   1.959   4.421  2.6059 -1.6147  1.3851
   76PVA    H2412790   6.462   2.143   4.419 -0.4287 -0.7521  1.2083
   76PVA    C1312791   6.665   2.074   4.407 -0.2418  0.6414 -0.7295
   76PVA    H2512792   6.702   2.174   4.435 -3.9989  2.5134 -1.7970
   76PVA    H2612793   6.739   2.013   4.461  0.2849  1.9372  0.0722
   76PVA    C1412794   6.686   2.040   4.258 -0.4294  0.0158  0.2580
   76PVA    H2712795   6.640   1.940   4.254 -3.4499  1.1597  2.7884
   76PVA     O512796   6.638   2.153   4.191  0.8464  0.2211  0.0301
   76PVA    H2812797   6.549   2.123   4.168 -0.2404 -0.2981  4.2386
   76PVA    C1512798   6.850   2.025   4.232  0.1553  0.2786 -0.1072
   76PVA    H2912799   6.910   2.083   4.304  0.1495 -1.6392  1.5598
   76PVA    H3012800   6.877   2.064   4.134 -1.1029 -1.0107 -1.0023
   76PVA    C1612801   6.911   1.885   4.236  0.6402  0.0920 -0.0964
   76PVA    H3112802   6.849   1.821   4.299  0.0010 -0.4278 -1.2207
   76PVA    H3212803   6.893   1.848   4.134 -1.8646  4.2718 -1.4094
   76PVA    C1712804   7.055   1.895   4.280 -0.5723  0.2066  0.7759
   76PVA    H3312805   7.059   1.951   4.374 -2.4832 -1.1401  1.7429
   76PVA     O612806   7.127   1.954   4.168  0.5526  0.2744  0.0423
   76PVA    H3412807   7.207   1.902   4.151  1.1961  1.6479 -1.4568
   76PVA    C1812808   7.119   1.756   4.319 -0.3018 -0.2238  0.4917
   76PVA    H3512809   7.228   1.761   4.329 -0.4521 -0.4447  2.7254
   76PVA    H3612810   7.086   1.713   4.415 -3.5040 -1.3305 -0.9810
   76PVA    C1912811   7.104   1.646   4.216  0.4496 -0.7217  0.6559
   76PVA    H3712812   7.189   1.599   4.165  0.5004 -2.4130  2.1802
   76PVA    H3812813   7.062   1.696   4.127 -1.8135  1.6499  2.8651
   76PVA    C2012814   7.023   1.521   4.259  0.4401 -0.0297  0.2827
   76PVA    H3912815   6.930   1.560   4.302  0.8287  1.9886 -0.6147
   76PVA     O712816   7.103   1.458   4.352 -0.5486 -0.1406  1.0390
   76PVA    H4012817   7.043   1.387   4.382 -1.9837 -0.3453 -1.9487
   76PVA    C2112818   7.002   1.435   4.134  1.1593  0.4410  0.5496
   76PVA    H4112819   7.097   1.390   4.103  0.6828  0.3394 -0.8351
   76PVA    H4212820   6.970   1.501   4.052  1.4815  0.4845  0.4594
   76PVA    C2212821   6.879   1.331   4.162 -0.7895  0.2273  0.4152
   76PVA    H4312822   6.846   1.310   4.059  0.0377 -1.6453  0.4918
   76PVA    H4412823   6.801   1.387   4.215  2.0456  1.8850  3.1878
   76PVA    C2312824   6.920   1.205   4.231 -1.0758 -0.9705 -0.8861
   76PVA    H4512825   6.833   1.148   4.196 -0.5227 -0.2013 -3.7472
   76PVA     O812826   6.907   1.216   4.375 -0.6831  0.3555 -0.7634
   76PVA    H4612827   6.918   1.125   4.407 -1.4033  1.0423  1.6893
   76PVA    C2412828   7.049   1.138   4.194 -0.5323  0.4422 -0.0847
   76PVA    H4712829   7.062   1.157   4.087 -0.7363  2.6163  0.2279
   76PVA    H4812830   7.125   1.202   4.241 -4.1434  3.2335  2.5840
   76PVA    C2512831   7.058   0.986   4.226  1.3867  0.5459 -0.7162
   76PVA    H4912832   6.996   0.958   4.312 -1.3806 -1.5135 -3.1854
   76PVA    H5012833   7.165   0.976   4.249  0.8785 -0.0829  1.6513
   76PVA    C2612834   7.029   0.905   4.094  0.4479 -0.4884 -0.2368
   76PVA    H5112835   7.091   0.943   4.012  1.7905  0.3407  1.1227
   76PVA     O912836   6.890   0.932   4.058 -0.3582 -0.7428 -0.5128
   76PVA    H5212837   6.866   0.853   4.007 -1.7086  0.3372 -1.6024
   76PVA    C2712838   7.052   0.749   4.103 -0.3169  0.7290 -0.5530
   76PVA    H5312839   7.093   0.737   4.001 -1.6918  1.5217 -1.2302
   76PVA    H5412840   6.963   0.686   4.098 -2.4372  3.4776 -4.9928
   76PVA    C2812841   7.155   0.709   4.206  0.0483  0.4328 -0.5136
   76PVA    H5512842   7.246   0.770   4.215  0.0208  0.2226  1.7373
   76PVA    H5612843   7.117   0.742   4.303  0.3189 -0.6106 -0.0416
   76PVA    C2912844   7.181   0.556   4.197 -0.1488  0.0665 -0.7013
   76PVA    H5712845   7.211   0.533   4.094  1.2858 -5.4702  0.6076
   76PVA    O1012846   7.294   0.530   4.287  0.5082  0.3099  0.1820
   76PVA    H5812847   7.378   0.565   4.252  1.8409 -0.2083  2.6028
   76PVA    C3012848   7.065   0.468   4.227 -0.8899  0.3312  0.5630
   76PVA    H5912849   7.052   0.472   4.336 -0.8638 -0.6793  0.6165
   76PVA    H6012850   6.968   0.509   4.198  0.8147  4.7541  0.2844
   76PVA    C3112851   7.081   0.320   4.196 -0.0897  0.0778 -0.6033
   76PVA    H6112852   6.979   0.279   4.194 -0.0285 -0.1053 -0.0569
   76PVA    H6212853   7.123   0.276   4.287 -0.4924 -2.0653 -1.4054
   76PVA    C3212854   7.168   0.285   4.072 -0.3270 -0.0588  0.4898
   76PVA    H6312855   7.251   0.356   4.079  0.9667 -1.0997 -2.4468
   76PVA    O1112856   7.094   0.326   3.957  0.9671  0.5024 -0.3281
   76PVA    H6412857   7.160   0.314   3.886 -0.0281 -2.3997 -0.8915
   76PVA    C3312858   7.205   0.133   4.066  0.5494  0.8920  0.8517
   76PVA    H6512859   7.262   0.097   3.979 -4.9407  1.0409 -3.3254
   76PVA    H6612860   7.108   0.084   4.053  1.8890 -1.6744 -0.1955
   76PVA    C3412861   7.264   0.078   4.196  0.1920  0.2485  0.5762
   76PVA    H6712862   7.285   0.165   4.260  0.5925  0.1522  0.5754
   76PVA    H6812863   7.203   0.005   4.251 -2.4067  1.2230 -0.8240
   76PVA    C3512864   7.390   7.676   4.186 -0.9993  0.0027  0.4387
   76PVA    H6912865   7.435   7.665   4.286  1.0227 -0.4434 -0.4723
   76PVA    O1212866   7.376   7.572   4.099 -0.8966  0.5564  0.2662
   76PVA    H7012867   7.296   7.522   4.119 -0.3722 -0.6551 -0.5296
   76PVA    C3612868   7.507   0.071   4.120 -0.0917  0.6611  0.6161
   76PVA    H7112869   7.596   0.007   4.112 -1.2400 -1.2824  2.3706
   76PVA    H7212870   7.481   0.079   4.014  1.4672 -0.4781  0.1058
   76PVA    C3712871   7.543   0.202   4.182  0.0009 -1.1643 -0.6399
   76PVA    H7312872   7.542   0.197   4.292  1.4178  1.9361 -0.3786
   76PVA    H7412873   7.481   0.283   4.143  3.0451  1.7586  0.0336
   76PVA    C3812874   7.691   0.233   4.136  0.3460  1.0868 -0.5108
   76PVA    H7512875   7.693   0.210   4.029  1.4999  0.5528 -0.3886
   76PVA    O1312876   0.025   0.153   4.198 -0.5540 -1.0246 -0.3979
   76PVA    H7612877   0.006   0.151   4.293 -3.6032 -0.8389 -0.9055
   76PVA    C3912878   7.733   0.379   4.162 -0.7174  0.2576 -0.5053
   76PVA    H7712879   7.697   0.402   4.264 -1.6218 -1.5950 -0.3691
   76PVA    H7812880   7.669   0.456   4.115  0.2436  2.5224  1.6387
   76PVA    C4012881   0.111   0.413   4.139  0.0709  0.0869 -0.6365
   76PVA    H7912882   0.143   0.456   4.235 -1.3356  0.7908 -0.4566
   76PVA    H8012883   0.176   0.327   4.157 -0.8473 -0.0537  2.6320
   76PVA    C4112884   0.142   0.499   4.011 -0.0020 -0.4800 -1.0009
   76PVA    H8112885   0.039   0.533   3.995 -0.9442 -1.5517  2.1373
   76PVA    O1412886   0.205   0.611   4.060  0.4044  0.2254 -0.3031
   76PVA    H8212887   0.256   0.581   4.137  0.1527 -0.1102 -0.2684
   76PVA    C4212888   0.228   0.454   3.886 -0.1783  0.9197  0.8931
   76PVA    H8312889   0.197   0.355   3.850  1.8786  0.4712  0.2304
   76PVA    H8412890   0.333   0.446   3.916  2.0602 -5.4713 -5.8921
   76PVA    C4312891   0.229   0.561   3.772  1.0711 -1.1050  0.3813
   76PVA    H8512892   0.274   0.651   3.815 -2.4474  0.3522  1.4226
   76PVA    H8612893   0.130   0.599   3.743  2.5182 -0.0482 -3.9023
   76PVA    C4412894   0.280   0.513   3.636 -0.0300  0.4705  1.2417
   76PVA    H8712895   0.305   0.606   3.584 -0.2777 -0.5017 -0.6977
   76PVA    O1512896   0.398   0.430   3.639  0.0984  0.4546 -0.3039
   76PVA    H8812897   0.469   0.471   3.692  1.9833 -0.5282 -1.9298
   76PVA    C4512898   0.163   0.427   3.562 -0.4247  0.1063  0.2328
   76PVA    H8912899   0.079   0.497   3.561  1.2476  2.3102  1.7629
   76PVA    H9012900   0.139   0.335   3.616 -2.7173  1.0386  0.8988
   76PVA    C4612901   0.188   0.386   3.423  0.6471  0.2248  0.3087
   76PVA    H9112902   0.204   0.478   3.366  2.3465  1.6489  2.8729
   76PVA    H9212903   0.280   0.327   3.423  1.8549  2.0185  0.9452
   76PVA    C4712904   0.087   0.313   3.319 -0.1324  0.6329 -0.8970
   76PVA    H9312905   7.762   0.293   3.377  0.4675  0.7740  0.1035
   76PVA    O1612906   0.129   0.188   3.267 -0.4969 -1.4960  0.0101
   76PVA    H9412907   0.208   0.226   3.225  1.4816 -0.9217  3.8096
   76PVA    C4812908   0.055   0.400   3.191  0.6395 -0.9634 -0.1487
   76PVA    H9512909   0.022   0.504   3.203 -2.4724 -1.7774 -0.8155
   76PVA    H9612910   0.153   0.408   3.141  1.8127 -0.0326  2.1731
   76PVA    C4912911   7.722   0.327   3.101 -0.2060 -0.9927  2.4959
   76PVA    H9712912   7.657   0.251   3.147 -1.9311 -0.4026  1.1606
   76PVA    H9812913   0.030   0.272   3.042 -1.5059  0.1990 -0.4334
   76PVA    C5012914   7.632   0.426   3.014  0.5872  0.2131  0.1346
   76PVA    H9912915   7.551   0.358   2.987  0.2862  1.7981 -3.4765
   76PVA    O1712916   7.552   0.516   3.082  0.2955 -0.1631 -0.6248
   76PVA   H10012917   7.497   0.455   3.135  1.7482  0.1535  1.3495
   76PVA    C5112918   7.684   0.477   2.880  1.1323 -0.2152 -0.5258
   76PVA   H10112919   0.025   0.503   2.869  0.3645  2.7099 -2.2112
   76PVA   H10212920   7.631   0.573   2.878 -0.6058 -1.0858  0.6838
   77PVA     C112921   6.003   1.419   5.904 -0.5182  0.6071 -0.0512
   77PVA     H112922   6.041   1.515   5.867  3.3481 -0.9907 -0.6191
   77PVA     H212923   6.089   1.369   5.950 -1.7215 -1.2965  0.2645
   77PVA     C212924   5.885   1.444   5.996  0.1671  0.0308 -0.4990
   77PVA     H312925   5.831   1.350   6.018 -0.0605  0.1942 -0.3550
   77PVA     O112926   5.809   1.546   5.943  0.2270 -0.1208  1.0590
   77PVA     H412927   5.812   1.527   5.847  0.8374 -2.4179  1.4762
   77PVA     C312928   5.945   1.501   6.133  0.4213  0.2526  0.9222
   77PVA     H512929   6.011   1.587   6.115  0.6050 -0.3304 -1.5137
   77PVA     H612930   5.862   1.555   6.180 -1.6476 -0.0051 -2.1675
   77PVA     C412931   5.991   1.393   6.225 -0.1654 -0.4106 -0.1671
   77PVA     H712932   6.058   1.327   6.167  1.7334  0.2794  1.1408
   77PVA     H812933   5.897   1.345   6.253 -0.3174  0.9544  1.8208
   77PVA     C512934   6.072   1.429   6.348 -1.2329 -0.1866 -0.0951
   77PVA     H912935   6.175   1.441   6.313 -1.6493 -1.9824 -2.1032
   77PVA     O212936   6.022   1.548   6.408  0.0952  0.3208 -0.2970
   77PVA    H1012937   5.931   1.562   6.377 -0.2199  1.3908  1.0154
   77PVA     C612938   6.090   1.318   6.462 -0.9937  0.0260  1.3079
   77PVA    H1112939   6.114   1.377   6.551 -0.3472 -1.2938  2.0323
   77PVA    H1212940   5.993   1.275   6.487 -0.7571 -0.6043  1.1668
   77PVA     C712941   6.197   1.214   6.414  0.5266  0.1425  0.3584
   77PVA    H1312942   6.180   1.201   6.306  3.1215  1.3426 -0.2791
   77PVA    H1412943   6.171   1.116   6.457 -0.0958  1.3061  2.7913
   77PVA     C812944   6.343   1.252   6.430 -0.2526  0.2996 -0.2019
   77PVA    H1512945   6.372   1.332   6.361 -2.6211 -1.1078 -3.0352
   77PVA     O312946   6.364   1.286   6.562  0.3850 -0.2989 -0.9023
   77PVA    H1612947   6.451   1.246   6.575  1.6972  2.9673  1.6431
   77PVA     C912948   6.440   1.138   6.398 -0.2187  0.1068 -0.0053
   77PVA    H1712949   6.396   1.075   6.319 -0.9581  1.3487 -0.6268
   77PVA    H1812950   6.452   1.069   6.482  2.0796 -1.1439 -1.2538
   77PVA    C1012951   6.605   1.176   6.389  0.5166  0.5124 -0.5848
   77PVA    H1912952   6.621   1.256   6.316 -2.4592  1.8117  0.0629
   77PVA    H2012953   6.652   1.217   6.480  0.8557 -2.4865  0.6918
   77PVA    C1112954   6.700   1.056   6.340  0.3392 -1.0067  0.3536
   77PVA    H2112955   6.663   1.031   6.240 -1.3474  0.3525  0.5922
   77PVA     O412956   6.669   0.937   6.412 -0.5535  0.1381 -0.4719
   77PVA    H2212957   6.627   0.964   6.496  0.7239 -0.4986  0.4154
   77PVA    C1212958   6.843   1.110   6.344 -0.1750 -0.1896 -0.2847
   77PVA    H2312959   6.837   1.194   6.273 -1.2095  3.9970  4.2162
   77PVA    H2412960   6.868   1.169   6.433 -1.8522  4.5355 -2.5797
   77PVA    C1312961   6.944   1.003   6.303 -0.3814 -0.0772  0.4730
   77PVA    H2512962   7.010   1.040   6.223  0.5205  0.6757  1.5413
   77PVA    H2612963   6.892   0.924   6.248  0.5126  0.2553 -0.9115
   77PVA    C1412964   7.040   0.948   6.420  0.6472 -0.5133 -0.2727
   77PVA    H2712965   6.979   0.907   6.501  0.7138  3.4323  2.0434
   77PVA     O512966   7.105   1.054   6.480 -0.3573  0.7008 -0.6511
   77PVA    H2812967   7.175   1.087   6.420  0.8313 -3.6245 -1.9643
   77PVA    C1512968   7.142   0.844   6.376 -0.1018 -0.2165  0.6701
   77PVA    H2912969   7.224   0.898   6.326  0.1766 -1.6462 -0.5032
   77PVA    H3012970   7.088   0.784   6.302 -1.7003 -2.3982  3.3909
   77PVA    C1612971   7.186   0.749   6.497 -0.1525  0.4182 -0.4134
   77PVA    H3112972   7.232   0.811   6.575 -1.0917  0.5932  0.0100
   77PVA    H3212973   7.099   0.694   6.534 -0.1339  1.4779  1.2884
   77PVA    C1712974   7.298   0.639   6.450  0.2286  0.4640 -0.0585
   77PVA    H3312975   7.256   0.585   6.365  2.8606  2.6452 -3.0005
   77PVA     O612976   7.409   0.695   6.408  0.2828 -0.6612  0.6459
   77PVA    H3412977   7.434   0.655   6.323  0.9065  2.2605 -0.6752
   77PVA    C1812978   7.334   0.544   6.561 -0.4079 -0.6031  0.6719
   77PVA    H3512979   7.430   0.495   6.541 -0.7472 -1.2698  0.6431
   77PVA    H3612980   7.363   0.598   6.652 -1.3737 -1.5753  1.5916
   77PVA    C1912981   7.219   0.439   6.595  0.2401 -0.3623  1.1677
   77PVA    H3712982   7.167   0.422   6.501  1.4535  3.2927 -0.3690
   77PVA    H3812983   7.142   0.495   6.649  0.1129  1.2713 -0.5880
   77PVA    C2012984   7.255   0.299   6.664  1.7818 -0.8587 -0.6019
   77PVA    H3912985   7.316   0.234   6.600 -0.7502 -1.6949 -2.3258
   77PVA     O712986   7.320   0.324   6.797  0.2041 -0.4518  0.0149
   77PVA    H4012987   7.293   0.415   6.817 -0.3020 -0.2705 -1.3915
   77PVA    C2112988   7.118   0.217   6.688  0.0405  1.0435 -0.4493
   77PVA    H4112989   7.122   0.126   6.749  0.2430  1.2505 -0.1467
   77PVA    H4212990   7.112   0.167   6.591  2.8706  1.2595 -0.8284
   77PVA    C2212991   6.991   0.289   6.718  0.4831  0.4710 -0.0050
   77PVA    H4312992   7.000   0.340   6.815 -3.8991  1.5338  0.0397
   77PVA    H4412993   6.969   0.362   6.639  0.0280 -1.0611 -1.3488
   77PVA    C2312994   6.865   0.199   6.724  0.6805  0.5350  0.7054
   77PVA    H4512995   6.862   0.148   6.627  2.1644  1.5357  0.1021
   77PVA     O812996   6.878   0.094   6.829  0.1359  0.6350  0.4719
   77PVA    H4612997   6.797   0.070   6.876  1.8684 -1.1464  2.7859
   77PVA    C2412998   6.727   0.272   6.746 -0.4427  0.6787 -0.4275
   77PVA    H4712999   6.657   0.188   6.746  0.4902 -0.1215 -0.4300
   77PVA    H4813000   6.695   0.330   6.659 -2.0749 -1.9288 -1.6827
   77PVA    C2513001   6.724   0.337   6.889  0.2312 -0.7012 -0.8364
   77PVA    H4913002   6.804   0.411   6.895 -0.1115 -0.0706 -3.0490
   77PVA    H5013003   6.732   0.258   6.964  1.7567  0.9605  0.8622
   77PVA    C2613004   6.579   0.406   6.902 -0.6558 -0.5312  0.7250
   77PVA    H5113005   6.569   0.471   6.814 -3.1353 -1.7077  0.0537
   77PVA     O913006   6.485   0.307   6.896  0.8066 -0.3517 -0.2485
   77PVA    H5213007   6.426   0.339   6.825 -0.0443 -0.0491  0.5782
   77PVA    C2713008   6.559   0.487   7.031 -0.4222  0.5518 -0.2670
   77PVA    H5313009   6.643   0.557   7.021  1.8016 -2.0833 -1.4446
   77PVA    H5413010   6.597   0.431   7.117  3.0780  0.6597 -1.5509
   77PVA    C2813011   6.422   0.559   7.053 -1.0042  0.7123  0.0668
   77PVA    H5513012   6.388   0.598   6.957  1.5511 -1.7818 -2.0270
   77PVA    H5613013   6.341   0.489   7.079 -0.7250 -0.0792 -1.1179
   77PVA    C2913014   6.435   0.660   7.175  0.0240  0.3138  1.0680
   77PVA    H5713015   6.525   0.629   7.231  2.9322  1.3251 -2.6542
   77PVA    O1013016   6.462   0.783   7.107 -0.0616  0.2875 -0.4675
   77PVA    H5813017   6.440   0.834   7.187 -0.7382 -2.1924  1.0308
   77PVA    C3013018   6.314   0.675   7.260 -0.0932  0.0044 -0.6182
   77PVA    H5913019   6.233   0.721   7.203 -4.0941  0.4352  4.6377
   77PVA    H6013020   6.264   0.581   7.289 -4.7422  1.3166 -3.3215
   77PVA    C3113021   6.341   0.737   7.401  0.3456 -0.1667  0.4110
   77PVA    H6113022   6.249   0.758   7.457  1.2562  0.1777  1.8490
   77PVA    H6213023   6.389   0.656   7.457  2.1656  0.0447 -0.7357
   77PVA    C3213024   6.439   0.854   7.409  0.0204  0.4077 -0.0516
   77PVA    H6313025   6.530   0.811   7.365 -1.8982 -2.5392 -1.3845
   77PVA    O1113026   6.394   0.963   7.318  0.2160 -0.7227  0.2274
   77PVA    H6413027   6.392   1.046   7.368  2.3438  0.1575 -1.0181
   77PVA    C3313028   6.485   0.912   7.553  0.8494  0.3043  1.2824
   77PVA    H6513029   6.535   0.831   7.608 -0.9378 -1.5926  0.2654
   77PVA    H6613030   6.404   0.925   7.625 -0.0329  1.5923  0.1024
   77PVA    C3413031   6.587   1.029   7.558  0.6678 -0.6993 -0.0253
   77PVA    H6713032   6.669   1.002   7.490  0.7131  1.3321 -0.8686
   77PVA    H6813033   6.557   1.126   7.515  1.7453 -0.4351 -0.2041
   77PVA    C3513034   6.634   1.070   7.703 -0.7721  0.1094  0.3505
   77PVA    H6913035   6.549   1.066   7.772  0.8128  0.8257  2.4570
   77PVA    O1213036   6.712   0.964   7.745 -0.5034  0.0056  0.2417
   77PVA    H7013037   6.657   0.884   7.746  1.0354 -1.1498  3.0048
   77PVA    C3613038   6.694   1.215   7.724  0.0285  0.7015 -0.4932
   77PVA    H7113039   6.627   1.296   7.692  0.7054  1.6947  0.5295
   77PVA    H7213040   6.782   1.218   7.659 -0.9458 -1.4135 -2.0208
   77PVA    C3713041   6.729   1.254   7.871  0.1981  0.1869 -1.0298
   77PVA    H7313042   6.643   1.226   7.934 -0.9447  2.5289 -1.4410
   77PVA    H7413043   6.715   1.362   7.878 -1.3341 -0.0949  1.2777
   77PVA    C3813044   6.867   1.199   7.939  0.0989 -1.0742  0.3246
   77PVA    H7513045   6.948   1.272   7.925 -2.2177  1.1303 -3.1799
   77PVA    O1313046   6.918   1.080   7.874  0.5569  0.1398 -0.5068
   77PVA    H7613047   6.846   1.016   7.858  0.7326  0.1957 -1.5394
   77PVA    C3913048   6.836   1.177   8.083  0.3447 -0.3833 -0.0917
   77PVA    H7713049   6.815   1.069   8.083 -0.0343 -0.3545  2.1032
   77PVA    H7813050   6.737   1.197   0.029  0.3197 -4.1422  1.9995
   77PVA    C4013051   6.950   1.204   0.096 -0.4580  1.2374  1.1755
   77PVA    H7913052   7.024   1.123   0.105  2.0796  3.1347 -0.9231
   77PVA    H8013053   7.007   1.288   0.053 -1.0625  0.5087 -1.2179
   77PVA    C4113054   6.907   1.246   0.237 -0.3029 -0.0658  0.1802
   77PVA    H8113055   6.832   1.323   0.217  1.3437  1.0234 -2.2237
   77PVA    O1413056   6.856   1.139   0.308  1.4389  0.4011 -0.1668
   77PVA    H8213057   6.827   1.175   0.393  1.0603 -3.1279  1.3532
   77PVA    C4213058   7.020   1.309   0.337  0.5035 -0.6167  0.6713
   77PVA    H8313059   7.073   1.375   0.268 -5.4055  0.6976 -3.3443
   77PVA    H8413060   7.077   1.227   0.383 -2.7398 -2.2001  2.1876
   77PVA    C4313061   6.958   1.401   0.457  0.5294  0.2803  0.6208
   77PVA    H8513062   6.992   1.359   0.553  3.0871 -0.9045 -0.6956
   77PVA    H8613063   6.849   1.387   0.455  0.7090 -1.3836 -1.6259
   77PVA    C4413064   6.991   1.555   0.440 -0.9926 -0.7180 -0.7285
   77PVA    H8713065   6.926   1.580   0.355 -1.8291 -0.5391 -0.0422
   77PVA    O1513066   7.130   1.588   0.420 -0.4000 -0.4113  0.4828
   77PVA    H8813067   7.136   1.647   0.498 -0.8852 -0.7049  0.7483
   77PVA    C4513068   6.933   1.656   0.550  0.1227  0.4173  0.3537
   77PVA    H8913069   6.933   1.756   0.506 -1.3792 -0.1961 -1.1960
   77PVA    H9013070   6.835   1.633   0.594 -0.0799 -0.8443 -0.6931
   77PVA    C4613071   7.042   1.674   0.664 -0.0216  0.9936 -0.6655
   77PVA    H9113072   7.041   1.579   0.719 -2.6605  1.4780  0.2676
   77PVA    H9213073   7.144   1.712   0.647  0.9724 -0.6625  1.2608
   77PVA    C4713074   6.994   1.764   0.789  0.3158 -0.0561 -0.2067
   77PVA    H9313075   6.931   1.704   0.856  0.6579  4.5034  4.9350
   77PVA    O1613076   6.936   1.880   0.738  0.2984  0.0886 -0.0943
   77PVA    H9413077   7.002   1.946   0.711 -1.3988  2.0578  0.3365
   77PVA    C4813078   7.118   1.821   0.875  0.2381  0.2526 -0.5268
   77PVA    H9513079   7.194   1.844   0.799  1.1433 -3.6088 -0.9710
   77PVA    H9613080   7.081   1.902   0.939  5.2891  1.8215  0.8283
   77PVA    C4913081   7.170   1.715   0.982 -0.4268  0.3277 -0.8320
   77PVA    H9713082   7.178   1.610   0.951 -3.6853  0.8263 -3.9253
   77PVA    H9813083   7.095   1.709   1.063 -0.0286 -1.6876 -0.5544
   77PVA    C5013084   7.297   1.769   1.053  0.1487 -0.1873  1.0565
   77PVA    H9913085   7.374   1.756   0.976  2.3456  2.7938  2.5305
   77PVA    O1713086   7.289   1.905   1.079  0.8700 -0.1094 -0.1830
   77PVA   H10013087   7.348   1.930   1.152 -1.5141 -0.2559  1.9416
   77PVA    C5113088   7.351   1.695   1.171 -0.1075 -0.0602 -0.4956
   77PVA   H10113089   7.273   1.667   1.244 -0.5841 -0.0151 -0.9808
   77PVA   H10213090   7.378   1.594   1.138 -2.0817 -0.1430 -2.0920
   78PVA     C113091   0.157   1.072   2.237  0.6696 -0.4390  0.2877
   78PVA     H113092   0.094   1.113   2.317  1.0362 -0.1627  0.4449
   78PVA     H213093   0.230   1.013   2.293  3.8876  3.3226  0.5355
   78PVA     C213094   0.232   1.195   2.185  0.9671 -0.2340 -0.6109
   78PVA     H313095   0.160   1.236   2.113  0.3375 -0.0874  0.0880
   78PVA     O113096   0.343   1.159   2.112  0.2000 -0.2514  0.5049
   78PVA     H413097   0.357   1.230   2.047  0.9387  2.8161  3.6897
   78PVA     C313098   0.274   1.301   2.303 -0.5104  0.3780  0.3290
   78PVA     H513099   0.330   1.248   2.381 -0.5585  4.1429  3.1978
   78PVA     H613100   0.175   1.333   2.338 -0.6251 -0.3272  0.6763
   78PVA     C413101   0.337   1.434   2.249  0.4158  0.0439 -0.7887
   78PVA     H713102   0.335   1.434   2.139 -2.0186 -0.9623 -0.8104
   78PVA     H813103   0.292   1.528   2.283  1.9007 -0.1718  2.1190
   78PVA     C513104   0.481   1.456   2.283  0.7962 -1.2896 -0.2657
   78PVA     H913105   0.475   1.493   2.387  3.6570  1.0065 -0.7601
   78PVA     O213106   0.552   1.335   2.256  0.4505 -0.0760  0.5003
   78PVA    H1013107   0.583   1.326   2.164 -4.4279 -1.2047 -1.3364
   78PVA     C613108   0.539   1.577   2.202  0.8025  0.0265  0.1001
   78PVA    H1113109   0.487   1.673   2.208  0.8801  0.2834 -2.5240
   78PVA    H1213110   0.530   1.555   2.095  4.9954  2.8384 -1.0824
   78PVA     C713111   0.697   1.590   2.218  1.2550  0.2050  0.1726
   78PVA    H1313112   0.723   1.593   2.325  0.8147 -2.6854  0.4414
   78PVA    H1413113   0.740   1.489   2.216  1.3556  0.1709  2.0621
   78PVA     C813114   0.774   1.686   2.124  1.2051  0.4439  0.2634
   78PVA    H1513115   0.835   1.731   2.203  1.9329 -1.6479  0.9802
   78PVA     O313116   0.677   1.783   2.079 -0.4462 -0.3160  0.2450
   78PVA    H1613117   0.686   1.864   2.133  0.9896 -0.5948  0.4852
   78PVA     C913118   0.854   1.617   2.017 -0.0640 -0.1729 -0.7844
   78PVA    H1713119   0.891   1.522   2.060  2.5472  1.0798 -0.0253
   78PVA    H1813120   0.781   1.594   1.939 -2.2121  1.1155  0.7322
   78PVA    C1013121   0.943   1.697   1.931  0.4417  0.3991 -0.0244
   78PVA    H1913122   0.889   1.758   1.857  1.7115  4.5082  2.1347
   78PVA    H2013123   0.977   1.777   1.997 -4.3352  3.4414 -0.7353
   78PVA    C1113124   1.047   1.616   1.851 -0.3795  0.2178 -1.0164
   78PVA    H2113125   1.124   1.565   1.910 -2.1968 -3.3198 -1.3954
   78PVA     O413126   0.987   1.503   1.779 -0.2849 -0.3125 -0.1906
   78PVA    H2213127   0.910   1.534   1.728  0.3154 -1.2466 -1.7258
   78PVA    C1213128   1.120   1.706   1.760 -0.5777  0.1364  0.0759
   78PVA    H2313129   1.063   1.761   1.684 -0.2147  1.2223  0.5574
   78PVA    H2413130   1.132   1.801   1.814 -4.2663 -0.7862  2.9545
   78PVA    C1313131   1.257   1.673   1.716 -0.2069  1.1355  0.2280
   78PVA    H2513132   1.262   1.587   1.648  1.3994 -0.0744  1.7903
   78PVA    H2613133   1.320   1.639   1.799  2.2949 -3.2684 -3.0629
   78PVA    C1413134   1.316   1.784   1.631 -1.2641  1.4339  0.5879
   78PVA    H2713135   1.310   1.881   1.682  0.0432  1.6316  0.4084
   78PVA     O513136   1.245   1.793   1.508 -1.1502  0.6126  0.7771
   78PVA    H2813137   1.244   1.696   1.499  0.5055  0.5514  1.1013
   78PVA    C1513138   1.462   1.764   1.589  0.6478 -0.5376 -0.4136
   78PVA    H2913139   1.464   1.714   1.491 -0.9495 -1.9939  0.2389
   78PVA    H3013140   1.492   1.682   1.656 -0.8432 -1.9090 -1.3539
   78PVA    C1613141   1.558   1.881   1.631  1.1165  1.3282  0.1959
   78PVA    H3113142   1.573   1.956   1.553 -2.3575 -0.3640 -2.3719
   78PVA    H3213143   1.499   1.943   1.699 -0.0669 -0.2150  0.6185
   78PVA    C1713144   1.698   1.847   1.679  0.7953  1.5607  0.6160
   78PVA    H3313145   1.770   1.927   1.661  1.8193  1.1086  2.4874
   78PVA     O613146   1.751   1.745   1.591 -0.1102  0.1272 -0.6103
   78PVA    H3413147   1.782   1.795   1.513 -2.4325 -0.9579 -2.3771
   78PVA    C1813148   1.698   1.803   1.832 -0.5759  0.0000 -0.2638
   78PVA    H3513149   1.606   1.758   1.873  2.1091 -2.6498  3.5591
   78PVA    H3613150   1.783   1.734   1.837  1.0516  1.6743 -2.8093
   78PVA    C1913151   1.727   1.927   1.925 -0.3180  0.2230  0.3300
   78PVA    H3713152   1.653   2.005   1.902  1.6534  1.8049 -1.0265
   78PVA    H3813153   1.822   1.972   1.893 -0.9941  1.2718 -0.2870
   78PVA    C2013154   1.744   1.886   2.068  0.4618  0.2778 -0.4436
   78PVA    H3913155   1.676   1.802   2.087 -0.2765  0.1993 -3.0626
   78PVA     O713156   1.873   1.826   2.078 -0.4088 -0.0962  0.7958
   78PVA    H4013157   1.846   1.741   2.117  1.9000 -0.4012  1.9002
   78PVA    C2113158   1.727   1.995   2.179 -1.0651  0.5639 -0.3606
   78PVA    H4113159   1.798   1.963   2.255  0.0446  1.8259 -0.8271
   78PVA    H4213160   1.623   1.991   2.213 -0.5429  0.6696  1.3107
   78PVA    C2213161   1.773   2.142   2.150  1.1630  1.3708 -0.1963
   78PVA    H4313162   1.795   2.193   2.244 -2.3921  2.0443  0.4234
   78PVA    H4413163   1.865   2.137   2.091 -0.0401 -2.9820 -2.1047
   78PVA    C2313164   1.651   2.217   2.095  0.7195 -0.2087  0.4398
   78PVA    H4513165   1.603   2.159   2.015 -2.2937  2.8575 -0.1985
   78PVA     O813166   1.685   2.330   2.018  0.4656 -0.1186 -0.5364
   78PVA    H4613167   1.651   2.404   2.071 -1.3891 -1.1887 -0.1076
   78PVA    C2413168   1.534   2.261   2.193 -0.0535 -0.0905 -0.3232
   78PVA    H4713169   1.489   2.164   2.220 -1.7976 -0.0148 -2.6604
   78PVA    H4813170   1.575   2.293   2.290 -2.1313  0.9201  0.3055
   78PVA    C2513171   1.406   2.332   2.149  0.1767  0.8956 -1.1782
   78PVA    H4913172   1.425   2.440   2.142  2.4039  0.4506 -3.4198
   78PVA    H5013173   1.391   2.294   2.048  0.2663  1.7492 -1.5224
   78PVA    C2613174   1.277   2.324   2.232  0.1204  0.5944 -0.6311
   78PVA    H5113175   1.289   2.388   2.320 -0.0977 -0.9141  0.5378
   78PVA     O913176   1.248   2.189   2.290  0.0783  0.5933  0.1514
   78PVA    H5213177   1.222   2.191   2.384  0.7356 -4.8117  0.8042
   78PVA    C2713178   1.146   2.382   2.170 -0.3487 -1.3173  0.0798
   78PVA    H5313179   1.051   2.343   2.209 -0.0398 -1.3109  0.8638
   78PVA    H5413180   1.143   2.354   2.064  1.4517 -0.1104 -0.3364
   78PVA    C2813181   1.141   2.534   2.169 -1.0500 -0.2433 -0.1780
   78PVA    H5513182   1.124   2.593   2.260 -5.1798  2.6628 -2.5334
   78PVA    H5613183   1.236   2.578   2.138 -1.0888  0.1744  0.2810
   78PVA    C2913184   1.037   2.590   2.066  0.3210 -0.7667 -0.0883
   78PVA    H5713185   1.067   2.569   1.962 -2.9226 -0.5087 -1.1703
   78PVA    O1013186   0.901   2.538   2.107  0.4021 -0.5905  0.3605
   78PVA    H5813187   0.829   2.565   2.048 -1.2640 -5.4829 -0.2274
   78PVA    C3013188   1.027   2.738   2.053 -0.8308  0.7785 -0.5346
   78PVA    H5913189   0.977   2.777   2.143  0.9014  1.4422  0.1829
   78PVA    H6013190   1.111   2.808   2.055 -0.4878  0.4076  2.0794
   78PVA    C3113191   0.936   2.753   1.924 -0.7822  0.9233 -0.6005
   78PVA    H6113192   0.859   2.677   1.938  0.8917 -0.3120  3.1904
   78PVA    H6213193   0.989   2.711   1.838  0.4856 -2.9918  1.8547
   78PVA    C3213194   0.900   2.901   1.894 -0.5890  0.5008  0.2391
   78PVA    H6313195   0.840   2.935   1.980  1.5726  1.9488  1.2720
   78PVA    O1113196   1.016   2.971   1.882  0.4994 -0.7049 -0.3106
   78PVA    H6413197   1.095   2.919   1.905  0.1963 -0.8551  0.4383
   78PVA    C3313198   0.793   2.904   1.779 -0.0346 -0.3063  0.4235
   78PVA    H6513199   0.775   3.012   1.766 -2.9137 -0.1977  3.8884
   78PVA    H6613200   0.693   2.873   1.809 -1.4901  1.6594 -2.0023
   78PVA    C3413201   0.835   2.848   1.646  1.1716 -0.4478  0.2657
   78PVA    H6713202   0.824   2.738   1.650  0.1712 -0.4046 -0.8339
   78PVA    H6813203   0.941   2.851   1.619  0.7613 -2.0878 -1.8561
   78PVA    C3513204   0.735   2.911   1.535 -0.0679 -0.5885 -0.1411
   78PVA    H6913205   0.633   2.922   1.575  0.6158 -2.6149  2.4155
   78PVA    O1213206   0.773   3.047   1.504  0.5585 -0.4823 -0.8019
   78PVA    H7013207   0.824   3.073   1.425 -0.9670  3.3316 -0.7532
   78PVA    C3613208   0.724   2.867   1.387 -0.6028  0.1351  0.2628
   78PVA    H7113209   0.806   2.902   1.323 -4.1329  1.1934 -4.1899
   78PVA    H7213210   0.737   2.758   1.386 -0.5965  0.0750 -2.7388
   78PVA    C3713211   0.585   2.902   1.325  0.1592  0.0409  0.0861
   78PVA    H7313212   0.592   3.003   1.284  1.3396 -0.3324 -0.6656
   78PVA    H7413213   0.515   2.917   1.408 -0.8951  0.2787 -0.8207
   78PVA    C3813214   0.546   2.799   1.217 -0.0842 -0.0712 -0.4630
   78PVA    H7513215   0.521   2.716   1.284 -2.9957 -0.2674 -1.6162
   78PVA    O1313216   0.652   2.754   1.130  0.0390  0.6723 -0.0860
   78PVA    H7613217   0.710   2.832   1.123  1.9954  0.0075  4.6774
   78PVA    C3913218   0.425   2.837   1.145 -0.3104  0.7501 -0.0517
   78PVA    H7713219   0.472   2.907   1.075  0.4166  1.3134  0.9746
   78PVA    H7813220   0.364   2.900   1.212  1.8431 -0.9815  3.8856
   78PVA    C4013221   0.327   2.725   1.093  0.1874  0.2633  0.3630
   78PVA    H7913222   0.251   2.699   1.168 -1.1818 -2.2452 -1.7091
   78PVA    H8013223   0.253   2.779   1.032  1.2258  0.7120 -0.5431
   78PVA    C4113224   0.386   2.601   1.018  0.1384 -0.1055 -0.8678
   78PVA    H8113225   0.299   2.552   0.972 -1.7802  3.6959 -1.6832
   78PVA    O1413226   0.496   2.647   0.946 -0.1554 -1.3638  0.0129
   78PVA    H8213227   0.559   2.699   0.999 -0.9178 -0.4552  0.0648
   78PVA    C4213228   0.429   2.501   1.118 -0.3700  0.4995 -1.3463
   78PVA    H8313229   0.538   2.501   1.128 -0.4702  1.7442  0.1549
   78PVA    H8413230   0.400   2.537   1.218  0.5221  1.1159 -1.2984
   78PVA    C4313231   0.379   2.353   1.087  0.1921  0.0390  0.2968
   78PVA    H8513232   0.431   2.324   0.995 -1.3406 -0.1576 -0.5472
   78PVA    H8613233   0.274   2.339   1.058  0.4793 -3.4924  0.5237
   78PVA    C4413234   0.399   2.262   1.217  0.6012  0.6204  0.9123
   78PVA    H8713235   0.341   2.292   1.306  0.3540 -0.3923  1.1072
   78PVA    O1513236   0.527   2.274   1.264  0.2008 -0.0087 -0.1764
   78PVA    H8813237   0.528   2.363   1.303 -0.8558 -0.5721  1.1933
   78PVA    C4513238   0.370   2.101   1.188  0.0262  0.3737 -0.5961
   78PVA    H8913239   0.455   2.065   1.129 -0.8972 -1.2473 -1.0064
   78PVA    H9013240   0.284   2.099   1.120 -0.9981  0.1765  0.6694
   78PVA    C4613241   0.352   2.008   1.311 -0.0877  0.3333 -0.9301
   78PVA    H9113242   0.314   2.066   1.396 -0.0174 -0.3223 -0.4481
   78PVA    H9213243   0.446   1.970   1.354 -0.2400  0.1618 -0.7490
   78PVA    C4713244   0.260   1.887   1.289  0.0286  0.0492  0.2776
   78PVA    H9313245   0.159   1.918   1.260  0.4943  0.0186 -1.5023
   78PVA    O1613246   0.306   1.819   1.170  0.5114  0.5263 -0.1478
   78PVA    H9413247   0.395   1.844   1.142 -0.3742  2.2146 -1.6814
   78PVA    C4813248   0.270   1.783   1.398  0.5701 -0.3949  0.2814
   78PVA    H9513249   0.223   1.697   1.348  2.1603 -2.3321  1.9415
   78PVA    H9613250   0.374   1.758   1.422  0.4150  0.6784  2.2736
   78PVA    C4913251   0.207   1.807   1.545  0.3094 -0.0297  0.9489
   78PVA    H9713252   0.274   1.885   1.584 -1.1691  1.7635  0.0652
   78PVA    H9813253   0.222   1.724   1.616 -2.5742  0.0528  1.7854
   78PVA    C5013254   0.055   1.839   1.537 -0.3472 -0.4968 -0.5967
   78PVA    H9913255   0.045   1.922   1.467 -0.9506  0.0209  0.0824
   78PVA    O1713256   0.005   1.882   1.666  0.2251 -0.0576  0.1511
   78PVA   H10013257   7.678   1.908   1.651 -0.7279 -0.4839  4.0811
   78PVA    C5113258   7.732   1.728   1.485  0.0460  0.9710  1.1350
   78PVA   H10113259   7.765   1.705   1.383 -3.1688  2.5431 -0.4344
   78PVA   H10213260   7.758   1.633   1.532  2.7000  1.4210  0.7181
   79PVA     C113261   0.375   0.853   1.909 -0.1913  0.6723  0.2405
   79PVA     H113262   0.321   0.851   1.814 -0.3899 -2.8925  0.3046
   79PVA     H213263   0.405   0.749   1.927  0.6852  0.4960 -1.9656
   79PVA     C213264   0.482   0.970   1.919  0.0331  0.0585 -0.3216
   79PVA     H313265   0.435   1.068   1.907 -0.9763 -0.4161 -0.4121
   79PVA     O113266   0.532   0.982   2.053  0.4323  0.1881 -0.3294
   79PVA     H413267   0.475   1.057   2.079  0.6955  0.4865 -0.6027
   79PVA     C313268   0.604   0.974   1.824  0.8414  1.2619  0.2722
   79PVA     H513269   0.641   1.076   1.843  2.6069  0.6111  0.6075
   79PVA     H613270   0.567   0.987   1.722 -1.4129  3.2311  1.2539
   79PVA     C413271   0.722   0.874   1.841 -0.2152 -0.6077  0.6996
   79PVA     H713272   0.732   0.851   1.948  1.1676  3.7377  1.7106
   79PVA     H813273   0.680   0.785   1.793 -1.3895  0.2794  0.0325
   79PVA     C513274   0.866   0.916   1.770  0.4307 -0.0186  0.7753
   79PVA     H913275   0.920   1.002   1.809  0.6369  0.9021 -1.3937
   79PVA     O213276   0.846   0.949   1.639  0.0585 -0.6929  0.2867
   79PVA    H1013277   0.865   0.868   1.589 -1.6102 -0.8018 -0.2220
   79PVA     C613278   0.976   0.801   1.771  0.1879  0.4862 -0.3194
   79PVA    H1113279   0.941   0.722   1.839  0.7968 -0.0661 -0.6435
   79PVA    H1213280   0.960   0.729   1.689  0.3783  0.8976 -0.7217
   79PVA     C713281   1.123   0.841   1.787 -0.2016 -0.2718 -0.2300
   79PVA    H1313282   1.110   0.931   1.848  1.6188 -0.3933  0.3875
   79PVA    H1413283   1.155   0.873   1.687  0.0533 -0.4406 -0.2026
   79PVA     C813284   1.246   0.745   1.827  0.4179 -0.3148  0.2206
   79PVA    H1513285   1.254   0.754   1.936 -1.9521 -1.3686  0.5428
   79PVA     O313286   1.217   0.609   1.813  0.4469 -0.2279  0.8563
   79PVA    H1613287   1.274   0.584   1.739  1.5332 -0.2653  1.6677
   79PVA     C913288   1.383   0.771   1.762  0.3649 -0.4928  0.3541
   79PVA    H1713289   1.461   0.712   1.812 -0.8583 -2.3443  0.1569
   79PVA    H1813290   1.415   0.867   1.804  0.7088 -1.1408  1.6134
   79PVA    C1013291   1.413   0.771   1.610 -0.4607  0.2481  1.4944
   79PVA    H1913292   1.393   0.680   1.553  2.8346  1.4464 -2.0449
   79PVA    H2013293   1.352   0.848   1.561  2.5468  1.4008 -0.8019
   79PVA    C1113294   1.554   0.823   1.563 -0.1939 -1.0688 -0.1404
   79PVA    H2113295   1.627   0.755   1.608  0.2435 -2.0235 -2.1644
   79PVA     O413296   1.567   0.952   1.625  0.4353  0.2115 -0.2392
   79PVA    H2213297   1.497   0.996   1.575  1.8529 -0.2113 -2.7951
   79PVA    C1213298   1.568   0.825   1.415  0.2508 -0.7868  0.9262
   79PVA    H2313299   1.495   0.757   1.370  1.1357 -1.7876  0.9587
   79PVA    H2413300   1.658   0.772   1.382  0.4304 -0.8612  1.5264
   79PVA    C1313301   1.557   0.956   1.336 -1.1226 -0.0520 -0.3791
   79PVA    H2513302   1.475   1.006   1.390 -2.4515 -3.5208  1.1465
   79PVA    H2613303   1.544   0.929   1.231 -0.2603  1.0661 -0.7807
   79PVA    C1413304   1.677   1.057   1.350 -0.3760  0.0668  0.4988
   79PVA    H2713305   1.653   1.127   1.431  0.3346  3.1669 -1.7788
   79PVA     O513306   1.800   0.994   1.368 -0.1729 -0.1659  0.5406
   79PVA    H2813307   1.788   0.923   1.434  1.7460 -0.2324  0.8730
   79PVA    C1513308   1.700   1.136   1.217 -0.7155  0.6370  1.1762
   79PVA    H2913309   1.735   1.062   1.144  1.0809  1.1828  1.4283
   79PVA    H3013310   1.609   1.192   1.190  1.5137  4.0297  0.0352
   79PVA    C1613311   1.807   1.243   1.247  0.1650 -0.6129 -0.2802
   79PVA    H3113312   1.805   1.288   1.347  0.9953 -1.4064  0.1098
   79PVA    H3213313   1.909   1.203   1.249  1.0996  1.6718  0.7671
   79PVA    C1713314   1.787   1.359   1.149 -0.0902 -0.8460  0.5071
   79PVA    H3313315   1.682   1.378   1.126  0.2147  0.3951  0.0037
   79PVA     O613316   1.858   1.327   1.026  0.4780  0.4409 -0.8191
   79PVA    H3413317   1.920   1.400   1.009 -0.1811  0.6269 -2.6036
   79PVA    C1813318   1.834   1.500   1.212 -0.1272  1.5385  0.1254
   79PVA    H3513319   1.919   1.486   1.279 -0.0828  2.7828  0.3453
   79PVA    H3613320   1.747   1.538   1.267 -0.6559  0.2233  0.2340
   79PVA    C1913321   1.877   1.612   1.108  0.2127 -0.5648  1.1890
   79PVA    H3713322   1.802   1.602   1.029  1.8925 -0.6935 -0.4600
   79PVA    H3813323   1.969   1.593   1.050  0.8629  3.0743  0.7856
   79PVA    C2013324   1.862   1.753   1.173  0.3328 -0.3408 -0.1180
   79PVA    H3913325   1.763   1.750   1.219 -0.1576  0.4279 -1.0754
   79PVA     O713326   1.964   1.754   1.274 -1.6431 -0.6387 -0.8664
   79PVA    H4013327   2.047   1.765   1.226 -2.9011  1.3467 -2.8141
   79PVA    C2113328   1.900   1.873   1.072 -0.1989  0.7992  0.0149
   79PVA    H4113329   1.863   1.843   0.973  1.1350 -0.7921 -0.0433
   79PVA    H4213330   1.860   1.969   1.106  0.1586  0.4541  1.4694
   79PVA    C2213331   2.054   1.902   1.068  0.6679 -0.4984  0.4543
   79PVA    H4313332   2.077   1.934   1.170 -1.2417 -1.1095  1.1177
   79PVA    H4413333   2.099   1.807   1.036 -2.3745 -0.6570 -4.3641
   79PVA    C2313334   2.094   2.020   0.974 -0.9010 -0.5075  0.6495
   79PVA    H4513335   2.053   2.114   1.015 -0.0008 -0.3883  1.3069
   79PVA     O813336   2.040   1.993   0.844  0.0956 -1.2587 -0.0625
   79PVA    H4613337   1.977   1.922   0.865  0.2182 -1.8433 -1.5952
   79PVA    C2413338   2.253   2.026   0.956  1.4654  0.0231  0.7233
   79PVA    H4713339   2.281   2.049   1.060  3.6464 -1.3046  0.4861
   79PVA    H4813340   2.287   1.922   0.951 -2.9928 -1.6259 -0.3783
   79PVA    C2513341   2.329   2.130   0.877  0.4874  0.1210 -0.1702
   79PVA    H4913342   2.361   2.075   0.788  1.1684  0.7904 -0.3460
   79PVA    H5013343   2.269   2.198   0.816  1.3230 -0.5973 -1.8678
   79PVA    C2613344   2.466   2.184   0.944  0.7386  0.5587  0.1113
   79PVA    H5113345   2.433   2.242   1.031  0.3334  2.7123 -1.3728
   79PVA     O913346   2.544   2.078   0.994  0.2203 -0.4854  0.2639
   79PVA    H5213347   2.627   2.111   1.032  0.5805 -2.2912  1.1704
   79PVA    C2713348   2.551   2.291   0.866 -0.0314 -0.2557 -0.1605
   79PVA    H5313349   2.479   2.348   0.805  1.6247  2.2823  0.1009
   79PVA    H5413350   2.603   2.250   0.779 -1.3636 -0.8715 -0.7080
   79PVA    C2813351   2.665   2.377   0.936 -0.0282  0.8995  0.4798
   79PVA    H5513352   2.623   2.404   1.033 -2.7794  0.7805 -0.5927
   79PVA    H5613353   2.754   2.321   0.968  0.6720  1.9341  0.3933
   79PVA    C2913354   2.704   2.509   0.865  0.5778  0.0447  0.0626
   79PVA    H5713355   2.610   2.565   0.872  0.0452 -1.0276  2.5350
   79PVA    O1013356   2.730   2.471   0.737 -0.6235  0.5816  0.3666
   79PVA    H5813357   2.824   2.451   0.724 -0.7607  0.5705 -0.7408
   79PVA    C3013358   2.835   2.579   0.921 -0.3631 -0.2280  0.0679
   79PVA    H5913359   2.917   2.511   0.892  2.1338  0.9733  3.6304
   79PVA    H6013360   2.832   2.563   1.029  2.8347  2.1983  0.6522
   79PVA    C3113361   2.861   2.729   0.871  0.7865 -0.2347  0.3696
   79PVA    H6113362   2.789   2.804   0.906  0.9148 -0.0910  0.3212
   79PVA    H6213363   2.858   2.741   0.762 -2.9155  0.7231  0.4272
   79PVA    C3213364   2.995   2.781   0.908  0.1578 -0.1009 -0.4071
   79PVA    H6313365   3.061   2.694   0.914  1.3961  0.9132  3.2389
   79PVA    O1113366   2.987   2.837   1.039  0.4323 -0.5265 -0.4225
   79PVA    H6413367   2.943   2.921   1.018 -1.8949 -0.6245  3.1739
   79PVA    C3313368   3.071   2.867   0.801  0.3110  0.0764  0.0845
   79PVA    H6513369   3.113   2.806   0.720 -2.6317 -1.2906 -0.5286
   79PVA    H6613370   3.001   2.934   0.748  3.2223  2.0913 -1.5386
   79PVA    C3413371   3.197   2.951   0.858 -0.4784  0.5435 -0.5139
   79PVA    H6713372   3.196   2.985   0.962 -1.2212  0.1314 -0.3801
   79PVA    H6813373   3.271   2.870   0.861  0.5587  1.4969 -0.0531
   79PVA    C3513374   3.242   3.069   0.754  0.1511 -0.6321 -0.1267
   79PVA    H6913375   3.259   3.023   0.656  2.5313 -1.8388  0.7709
   79PVA    O1213376   3.131   3.154   0.770 -0.0209 -0.8005  0.4873
   79PVA    H7013377   3.135   3.176   0.865 -1.5267 -3.2513  1.2359
   79PVA    C3613378   3.382   3.135   0.791  1.1909  0.3309  0.5953
   79PVA    H7113379   3.374   3.146   0.900  1.3299 -2.0145  0.8791
   79PVA    H7213380   3.469   3.071   0.774 -0.6038 -1.4316 -2.8366
   79PVA    C3713381   3.420   3.262   0.718  0.5611  0.3623 -0.0221
   79PVA    H7313382   3.357   3.348   0.743  2.1672  1.9307 -1.1471
   79PVA    H7413383   3.391   3.228   0.618 -0.7624 -2.4368  1.1940
   79PVA    C3813384   3.573   3.292   0.730 -0.9103  0.6332  0.4671
   79PVA    H7513385   3.615   3.248   0.821 -2.7159  2.8064  2.4737
   79PVA    O1313386   3.581   3.430   0.742 -0.2552  0.9699  0.2299
   79PVA    H7613387   3.578   3.461   0.650  1.3467 -0.7897 -0.4861
   79PVA    C3913388   3.646   3.244   0.598  0.3296 -0.2291  0.3143
   79PVA    H7713389   3.633   3.138   0.572 -0.6135 -1.2361  4.1788
   79PVA    H7813390   3.597   3.299   0.517 -0.8297 -1.3994  0.1859
   79PVA    C4013391   3.797   3.266   0.609 -0.3873 -0.1026 -0.4135
   79PVA    H7913392   3.804   3.362   0.663 -0.3903  0.4404 -1.3589
   79PVA    H8013393   3.832   3.190   0.679 -3.7771 -0.1337  1.4536
   79PVA    C4113394   3.858   3.257   0.472 -0.0506  0.4830  0.1609
   79PVA    H8113395   3.826   3.354   0.433 -0.9718 -0.8467 -2.6106
   79PVA    O1413396   3.816   3.148   0.384 -0.1312 -0.1334 -0.0194
   79PVA    H8213397   3.861   3.067   0.414 -1.5958 -1.0990 -0.3060
   79PVA    C4213398   4.017   3.239   0.469  0.2532  0.1775 -1.8197
   79PVA    H8313399   4.061   3.244   0.570  0.5315 -1.9000 -1.7991
   79PVA    H8413400   4.055   3.138   0.453  0.7843 -0.8212  3.6625
   79PVA    C4313401   4.065   3.357   0.382  0.2758 -0.3762  0.2475
   79PVA    H8513402   4.082   3.445   0.447  0.3710 -0.3503  0.1882
   79PVA    H8613403   4.000   3.377   0.297 -1.9308  0.9349  2.1143
   79PVA    C4413404   4.199   3.363   0.310  0.1782  0.8212 -1.1624
   79PVA    H8713405   4.172   3.278   0.245 -0.6240  1.1159 -1.2227
   79PVA    O1513406   4.301   3.327   0.397 -0.3002 -0.2424  0.2502
   79PVA    H8813407   4.268   3.253   0.451 -4.4242  2.2920  1.7648
   79PVA    C4513408   4.217   3.492   0.225 -0.2396 -0.0721 -0.4832
   79PVA    H8913409   4.227   3.582   0.286  0.5219 -0.1948 -0.4164
   79PVA    H9013410   4.124   3.502   0.167  0.7212  2.1089 -1.7500
   79PVA    C4613411   4.329   3.477   0.132  0.2877  0.7575 -0.4096
   79PVA    H9113412   4.410   3.433   0.191 -2.1224 -1.4300  1.5461
   79PVA    H9213413   4.306   3.405   0.052  1.4773  1.3565 -1.3063
   79PVA    C4713414   4.372   3.608   0.075  0.2996  0.4231  0.6182
   79PVA    H9313415   4.399   3.681   0.152 -1.9272  3.3775 -1.1913
   79PVA    O1613416   4.265   3.668   0.004  0.1157 -0.6548 -1.0516
   79PVA    H9413417   4.181   3.634   0.040 -1.7041  0.2040 -4.1524
   79PVA    C4813418   4.497   3.589   8.082  0.1640  1.2727  0.3294
   79PVA    H9513419   4.564   3.544   0.060 -1.0792  1.9303  1.8964
   79PVA    H9613420   4.479   3.523   7.997  1.3897  0.3556  0.7488
   79PVA    C4913421   4.568   3.714   8.044 -0.3158  0.1500 -0.6016
   79PVA    H9713422   4.510   3.806   8.057 -1.1967 -0.7850  2.9637
   79PVA    H9813423   4.663   3.739   8.091  1.2062  1.6730 -4.1011
   79PVA    C5013424   4.620   3.705   7.899  0.1751 -0.5408 -0.7560
   79PVA    H9913425   4.543   3.645   7.849 -2.9485  1.8797  0.7856
   79PVA    O1713426   4.755   3.644   7.900 -0.5245 -0.1605  0.5593
   79PVA   H10013427   4.797   3.680   7.981 -1.5983 -1.3427  1.6940
   79PVA    C5113428   4.642   3.856   7.836 -0.0531  0.7946 -0.5061
   79PVA   H10113429   4.545   3.902   7.810  0.2337  1.0685 -1.1155
   79PVA   H10213430   4.681   3.910   7.924  0.2005 -1.0021  0.5283
   80PVA     C113431   6.981   1.718   1.381  0.2372  0.6589  0.5572
   80PVA     H113432   6.896   1.664   1.425 -0.1800  0.1749 -0.8130
   80PVA     H213433   7.021   1.663   1.295 -1.4158  1.6280 -0.8898
   80PVA     C213434   6.951   1.856   1.331 -0.0057 -0.8301  0.5566
   80PVA     H313435   7.050   1.892   1.303 -1.6054  3.1858 -0.7806
   80PVA     O113436   6.884   1.936   1.430 -0.0810 -1.0674  0.0489
   80PVA     H413437   6.929   1.915   1.513  0.1454 -2.1907 -0.3416
   80PVA     C313438   6.875   1.859   1.207  0.9236 -1.0439  0.6740
   80PVA     H513439   6.783   1.798   1.207  0.9980 -1.2000 -1.4533
   80PVA     H613440   6.922   1.811   1.121  1.3368 -0.6803  0.6936
   80PVA     C413441   6.858   2.010   1.167  0.6651 -0.3916  0.5505
   80PVA     H713442   6.783   2.062   1.228 -0.1980  1.8505 -2.2102
   80PVA     H813443   6.952   2.066   1.171  1.5127 -1.6493 -0.8602
   80PVA     C513444   6.820   2.016   1.022  1.4746  0.3849 -0.9711
   80PVA     H913445   6.792   1.913   0.998 -1.8826 -0.1006  3.6911
   80PVA     O213446   6.922   2.078   0.949  0.0555 -0.4018  0.5321
   80PVA    H1013447   6.953   2.012   0.884  1.4066  1.7036 -1.1476
   80PVA     C613448   6.688   2.089   0.996  0.3159  0.1763  0.7002
   80PVA    H1113449   6.668   2.167   1.071  0.7861  1.4262 -0.4306
   80PVA    H1213450   6.617   2.016   1.037  0.0177 -2.4263 -3.8258
   80PVA     C713451   6.658   2.128   0.847  0.2342 -0.3166  0.0510
   80PVA    H1313452   6.722   2.214   0.825 -1.8569  1.4535  0.5426
   80PVA    H1413453   6.696   2.051   0.778  1.3811  0.9180 -0.7560
   80PVA     C813454   6.510   2.155   0.816  1.0118 -1.2286 -0.0410
   80PVA    H1513455   6.469   2.053   0.816  1.1885 -1.3379 -1.7859
   80PVA     O313456   6.498   2.218   0.687 -0.2986  0.7294 -0.6344
   80PVA    H1613457   6.542   2.159   0.623 -3.3065 -2.6905  0.1345
   80PVA     C913458   6.418   2.233   0.918 -1.6461 -0.6404 -0.4761
   80PVA    H1713459   6.470   2.329   0.922 -1.5867 -0.7066  1.0900
   80PVA    H1813460   6.432   2.188   1.018 -0.4751  2.4099  0.8409
   80PVA    C1013461   6.280   2.268   0.875 -0.5394  0.9911 -0.5003
   80PVA    H1913462   6.291   2.330   0.785  0.4696  1.7833  0.1569
   80PVA    H2013463   6.226   2.177   0.843 -2.3341  1.5100  0.8696
   80PVA    C1113464   6.187   2.352   0.981  0.2352 -0.9651 -1.0658
   80PVA    H2113465   6.253   2.426   1.029  1.6557 -2.0616 -1.2619
   80PVA     O413466   6.151   2.243   1.085 -0.4909 -0.2701  0.3627
   80PVA    H2213467   6.144   2.278   1.176  2.1207 -0.5577  0.7442
   80PVA    C1213468   6.071   2.437   0.928 -0.7199 -0.5603 -0.7254
   80PVA    H2313469   6.088   2.517   0.855 -0.1642 -0.8534 -0.9176
   80PVA    H2413470   5.999   2.363   0.893 -0.6107 -2.0361  1.9001
   80PVA    C1313471   5.993   2.511   1.040  0.6792  0.0707  0.3556
   80PVA    H2513472   5.920   2.446   1.090 -1.3442  0.0652 -2.3870
   80PVA    H2613473   5.927   2.579   0.986  0.3391 -0.6019 -0.0868
   80PVA    C1413474   6.061   2.601   1.140 -0.8375 -0.6027 -1.0906
   80PVA    H2713475   6.125   2.547   1.211 -0.8134 -2.2797 -2.2959
   80PVA     O513476   6.142   2.695   1.067 -0.1203 -0.5947  0.4263
   80PVA    H2813477   6.232   2.674   1.098 -0.8116 -2.1165  1.4973
   80PVA    C1513478   5.950   2.677   1.231 -0.8402  0.7916 -0.5465
   80PVA    H2913479   5.886   2.606   1.284  0.4851 -0.7177 -0.8557
   80PVA    H3013480   5.879   2.741   1.177 -1.2799  3.0208  2.4499
   80PVA    C1613481   6.013   2.767   1.345  0.1666  0.4532  1.2169
   80PVA    H3113482   6.083   2.707   1.404 -2.3856 -1.1854  2.8058
   80PVA    H3213483   6.075   2.847   1.302 -0.3534  1.1684  1.7530
   80PVA    C1713484   5.918   2.827   1.450  0.4937 -0.2578  0.3225
   80PVA    H3313485   5.975   2.888   1.521 -4.2535  3.9291  1.1237
   80PVA     O613486   5.844   2.731   1.528 -0.5189  0.3214  0.9490
   80PVA    H3413487   5.885   2.644   1.518 -0.3040  0.5724 -0.5428
   80PVA    C1813488   5.817   2.926   1.389 -0.3566  0.5945  0.1369
   80PVA    H3513489   5.863   2.957   1.295 -2.1866  1.3059 -0.5640
   80PVA    H3613490   5.741   2.865   1.339  3.5231 -3.1133 -1.9510
   80PVA    C1913491   5.748   3.013   1.482 -0.4566  0.5615  0.2747
   80PVA    H3713492   5.816   3.052   1.558  0.6822  1.1834 -1.0106
   80PVA    H3813493   5.674   2.955   1.538 -1.4096  2.2893  0.8630
   80PVA    C2013494   5.678   3.130   1.415 -0.6561 -0.1239  0.0814
   80PVA    H3913495   5.736   3.138   1.323 -4.1608 -0.7000 -2.3789
   80PVA     O713496   5.699   3.240   1.502 -0.1806  1.4440  0.4880
   80PVA    H4013497   5.774   3.288   1.463 -1.2655  1.7961 -1.2983
   80PVA    C2113498   5.529   3.114   1.386 -1.2910 -1.4682  0.2353
   80PVA    H4113499   5.486   3.055   1.468 -3.3229  0.1552  0.4131
   80PVA    H4213500   5.474   3.209   1.394 -0.2850 -0.8696  0.1530
   80PVA    C2213501   5.483   3.067   1.253 -0.2310  0.7190 -0.0861
   80PVA    H4313502   5.379   3.103   1.257 -1.0659 -1.6236  1.7477
   80PVA    H4413503   5.482   2.958   1.261 -0.4885  0.6438 -0.9588
   80PVA    C2313504   5.563   3.120   1.125  0.8691 -0.1494 -1.2054
   80PVA    H4513505   5.668   3.090   1.133  0.5995 -0.5567  2.0679
   80PVA     O813506   5.549   3.270   1.125 -0.2144  0.7424  0.8387
   80PVA    H4613507   5.474   3.289   1.185  0.8995 -1.4214  3.0620
   80PVA    C2413508   5.515   3.068   0.977 -0.0070 -0.1843 -0.5970
   80PVA    H4713509   5.577   3.127   0.908  3.0313  1.1984  2.9652
   80PVA    H4813510   5.543   2.963   0.965  2.5214  0.3538  0.1161
   80PVA    C2513511   5.366   3.113   0.942 -0.2344  0.4422  1.3146
   80PVA    H4913512   5.340   3.216   0.971  1.4009  2.6011 -3.8278
   80PVA    H5013513   5.311   3.054   1.017  0.8150 -0.4007  1.4346
   80PVA    C2613514   5.346   3.074   0.789 -0.0994 -0.1997  1.0423
   80PVA    H5113515   5.382   2.970   0.787 -1.5859 -0.7962 -2.5637
   80PVA     O913516   5.407   3.168   0.702 -0.1309 -0.0577  0.2430
   80PVA    H5213517   5.342   3.183   0.630  0.4051  0.5894 -0.1175
   80PVA    C2713518   5.196   3.066   0.745 -1.2746 -0.3807 -0.9148
   80PVA    H5313519   5.170   2.968   0.787  3.0116 -2.0289 -1.5668
   80PVA    H5413520   5.134   3.147   0.785 -2.1101 -1.3120 -0.2780
   80PVA    C2813521   5.157   3.071   0.593  0.7908 -0.3511  1.0026
   80PVA    H5513522   5.216   3.000   0.534  3.2246  0.8642  1.8170
   80PVA    H5613523   5.178   3.172   0.554  0.8918 -0.9088 -0.4314
   80PVA    C2913524   5.003   3.037   0.579  0.6026  0.0055 -0.2457
   80PVA    H5713525   4.946   3.103   0.646  1.3405 -0.6891  1.0903
   80PVA    O1013526   4.991   2.899   0.612  0.0027  0.3834  0.3422
   80PVA    H5813527   4.946   2.901   0.698  0.0185  0.7143  0.3467
   80PVA    C3013528   4.962   3.051   0.431  1.6301  0.9586  1.1062
   80PVA    H5913529   5.033   3.003   0.364 -2.5167  0.0193 -3.1485
   80PVA    H6013530   4.873   2.990   0.414  1.8158  1.2742 -1.3493
   80PVA    C3113531   4.930   3.193   0.377  0.0769  0.4418 -0.0715
   80PVA    H6113532   4.918   3.183   0.268 -0.7452  0.0203  0.0494
   80PVA    H6213533   5.013   3.258   0.405 -0.8518  0.6172  2.5645
   80PVA    C3213534   4.795   3.256   0.438  0.2393  0.8788  0.3698
   80PVA    H6313535   4.812   3.273   0.545 -1.5070 -3.2442  1.4853
   80PVA    O1113536   4.680   3.161   0.443 -0.2335 -0.4337 -0.0175
   80PVA    H6413537   4.706   3.075   0.479 -0.2831 -0.8048 -0.8478
   80PVA    C3313538   4.738   3.385   0.384 -0.4917 -0.1315  0.5909
   80PVA    H6513539   4.825   3.440   0.347 -0.1762  0.3317  1.9458
   80PVA    H6613540   4.707   3.374   0.280  2.7889 -5.0749 -0.2177
   80PVA    C3413541   4.641   3.461   0.487  0.2306 -0.1448 -0.2704
   80PVA    H6713542   4.546   3.415   0.456 -0.0670  1.2622 -1.5251
   80PVA    H6813543   4.667   3.444   0.592 -3.8280 -0.6060  0.8334
   80PVA    C3513544   4.654   3.626   0.466  0.2130  0.1599  0.6310
   80PVA    H6913545   4.622   3.656   0.366 -3.4732 -1.3223  1.1749
   80PVA    O1213546   4.555   3.681   0.555 -0.0775 -0.3520  0.1770
   80PVA    H7013547   4.543   3.776   0.539  0.3036 -0.0071  1.8314
   80PVA    C3613548   4.804   3.680   0.481  0.5514 -1.1161  0.2135
   80PVA    H7113549   4.863   3.644   0.566  2.6914 -0.6091 -1.0004
   80PVA    H7213550   4.868   3.654   0.396  1.1373  3.8489 -1.1702
   80PVA    C3713551   4.816   3.837   0.476  0.3493  0.4956  0.3108
   80PVA    H7313552   4.731   3.879   0.531 -0.1674  0.7342 -0.6353
   80PVA    H7413553   4.795   3.864   0.371  1.3767 -4.4327 -1.4430
   80PVA    C3813554   4.957   3.880   0.513  0.7623 -0.3381  0.5390
   80PVA    H7513555   5.025   3.824   0.448 -0.1507  2.1278 -2.7784
   80PVA    O1313556   4.980   3.851   0.644 -0.7367 -0.0316 -0.0560
   80PVA    H7613557   5.049   3.783   0.637 -1.5482 -0.7155 -3.6550
   80PVA    C3913558   4.991   4.033   0.477 -1.3434 -0.0902  0.0849
   80PVA    H7713559   5.091   4.057   0.515 -0.9569 -1.1011 -0.2637
   80PVA    H7813560   4.987   4.042   0.368 -1.1190 -0.3168  0.0559
   80PVA    C4013561   4.899   4.134   0.533 -0.2235 -0.1557 -0.4871
   80PVA    H7913562   4.888   4.141   0.641  0.9791  3.1590 -0.4694
   80PVA    H8013563   4.803   4.116   0.483 -1.3650  0.4333  1.3841
   80PVA    C4113564   4.949   4.279   0.494  0.6444 -0.3063 -0.3510
   80PVA    H8113565   5.037   4.288   0.560  0.5441  0.1894 -0.2874
   80PVA    O1413566   4.835   4.358   0.529 -0.5337 -0.3075  0.6239
   80PVA    H8213567   4.847   4.435   0.587 -0.2656 -2.7186  4.0593
   80PVA    C4213568   5.004   4.295   0.347 -0.5537 -1.2812 -0.2836
   80PVA    H8313569   5.102   4.246   0.345  0.2191  0.2209 -0.4420
   80PVA    H8413570   4.939   4.246   0.273  1.5201 -0.7538 -2.5773
   80PVA    C4313571   5.036   4.443   0.316 -0.9964 -0.6231 -0.1579
   80PVA    H8513572   5.105   4.489   0.388 -0.3666 -2.0483  0.1861
   80PVA    H8613573   4.944   4.503   0.327 -0.9339 -0.6144  0.3500
   80PVA    C4413574   5.102   4.445   0.184 -0.3618 -0.7042  0.7716
   80PVA    H8713575   5.027   4.382   0.135 -0.9532 -1.2113  2.2668
   80PVA    O1513576   5.097   4.579   0.144  1.0171 -0.9902  0.7197
   80PVA    H8813577   5.007   4.610   0.126  0.8334 -2.0760 -0.3922
   80PVA    C4513578   5.246   4.390   0.185  0.0275  0.3518 -0.3214
   80PVA    H8913579   5.239   4.286   0.218  0.4874  1.0043  1.9763
   80PVA    H9013580   5.321   4.432   0.253  0.7893 -0.2997 -0.7383
   80PVA    C4613581   5.305   4.375   0.044 -0.1412  0.8321 -1.2093
   80PVA    H9113582   5.278   4.473   0.004 -2.8265  0.6377 -0.1521
   80PVA    H9213583   5.412   4.383   0.064  0.3527 -2.0877 -2.1556
   80PVA    C4713584   5.244   4.253   8.062 -0.5232 -1.0202  0.1313
   80PVA    H9313585   5.139   4.226   8.080 -0.9122 -0.4374 -1.1662
   80PVA    O1613586   5.336   4.148   8.085 -0.3609  0.5112 -1.1964
   80PVA    H9413587   5.414   4.172   8.033  0.5001 -1.5109 -0.9293
   80PVA    C4813588   5.258   4.258   7.910 -1.1954 -0.6507  0.0347
   80PVA    H9513589   5.246   4.165   7.854  4.5322 -1.6564 -0.0882
   80PVA    H9613590   5.353   4.298   7.873  0.2481 -0.2208  3.7880
   80PVA    C4913591   5.149   4.357   7.859 -0.2517 -0.1389 -0.2942
   80PVA    H9713592   5.177   4.384   7.757 -2.9504 -0.7710 -1.3078
   80PVA    H9813593   5.157   4.448   7.919 -0.0653  1.4411 -2.5991
   80PVA    C5013594   4.996   4.316   7.856 -0.2836  1.1290 -0.7029
   80PVA    H9913595   4.964   4.290   7.958  2.1085 -2.5261 -0.7084
   80PVA    O1713596   4.925   4.411   7.783 -0.0481  1.4357 -0.0661
   80PVA   H10013597   4.959   4.424   7.693 -0.3157  0.0734 -0.3948
   80PVA    C5113598   4.989   4.175   7.793 -0.4939 -0.3824 -0.0426
   80PVA   H10113599   5.031   4.179   7.692  1.0948  1.0450  0.6299
   80PVA   H10213600   5.041   4.102   7.856 -1.4455 -2.5455 -1.6400
   81PVA     C113601   7.308   1.460   1.684  0.0723  0.5917  0.0000
   81PVA     H113602   7.354   1.486   1.780  0.5396 -3.1905  0.9543
   81PVA     H213603   7.216   1.404   1.704  0.5691 -0.8384 -1.5151
   81PVA     C213604   7.406   1.393   1.583  0.0404  0.8768  0.6403
   81PVA     H313605   7.383   1.423   1.480 -0.3719 -3.0930 -0.5955
   81PVA     O113606   7.547   1.423   1.611 -0.8711  0.3368 -0.3080
   81PVA     H413607   7.553   1.520   1.622 -1.3079  0.5503 -1.6521
   81PVA     C313608   7.381   1.239   1.568  0.1383 -0.7988  0.0629
   81PVA     H513609   7.275   1.213   1.574  0.2601 -1.2487  0.2659
   81PVA     H613610   7.427   1.192   1.655 -2.5923  1.6921  3.0968
   81PVA     C413611   7.439   1.185   1.442 -0.1791  0.0231  0.2472
   81PVA     H713612   7.396   1.241   1.357  0.3195 -2.9616 -2.1377
   81PVA     H813613   7.548   1.194   1.443 -0.1453  0.6912 -2.0066
   81PVA     C513614   7.406   1.033   1.410 -0.2652 -0.1374 -1.1881
   81PVA     H913615   7.429   0.983   1.505  1.9166  3.5850  0.4583
   81PVA     O213616   7.270   1.009   1.379 -0.5886  1.5031  0.0812
   81PVA    H1013617   7.279   0.921   1.338  0.6352  1.4911  0.3385
   81PVA     C613618   7.503   0.958   1.311 -0.7049  0.9232  0.0640
   81PVA    H1113619   7.487   0.851   1.327 -0.6304  0.7911 -0.6996
   81PVA    H1213620   7.484   0.991   1.208 -0.1717 -1.5865 -0.8976
   81PVA     C713621   7.652   0.998   1.350 -0.5583  0.8911 -0.4162
   81PVA    H1313622   7.671   0.977   1.456  0.5823 -1.0550 -0.9487
   81PVA    H1413623   7.690   1.099   1.332  3.1173 -0.0221  1.3545
   81PVA     C813624   0.001   0.904   1.290  1.3821  0.5243 -1.0056
   81PVA    H1513625   0.025   0.936   1.188  0.8236  0.7426 -1.0688
   81PVA     O313626   7.738   0.770   1.289  0.5112  0.7622  0.5160
   81PVA    H1613627   7.745   0.738   1.381 -1.4901  0.8914  0.7621
   81PVA     C913628   0.142   0.933   1.357  0.1753  0.9228  0.9358
   81PVA    H1713629   0.175   1.011   1.287  0.5499  0.5932  0.7383
   81PVA    H1813630   0.131   0.989   1.451 -1.2465  2.0146  0.1484
   81PVA    C1013631   0.256   0.826   1.364  1.0141  0.0917 -0.0772
   81PVA    H1913632   0.216   0.724   1.362  0.7622  0.2056 -0.8713
   81PVA    H2013633   0.313   0.818   1.271  4.5256 -0.6503  1.9186
   81PVA    C1113634   0.350   0.851   1.493 -0.6684 -0.8084  0.6482
   81PVA    H2113635   0.285   0.827   1.578 -0.3883 -2.6354  0.3927
   81PVA     O413636   0.397   0.984   1.484  0.6680  0.0762 -0.4307
   81PVA    H2213637   0.362   1.018   1.569  2.8254 -1.8438  1.3476
   81PVA    C1213638   0.473   0.763   1.502 -0.9577  0.2150 -0.1642
   81PVA    H2313639   0.556   0.834   1.490 -2.5792  3.2801  4.1577
   81PVA    H2413640   0.459   0.686   1.425 -3.9145  4.3081 -4.3321
   81PVA    C1313641   0.469   0.703   1.650  0.1181  0.6368  0.0366
   81PVA    H2513642   0.373   0.660   1.680  0.9753  0.2773  2.4968
   81PVA    H2613643   0.484   0.791   1.714 -3.4658 -0.4914  2.7769
   81PVA    C1413644   0.574   0.592   1.681 -0.0850 -0.4305  0.4483
   81PVA    H2713645   0.550   0.503   1.622  5.3084 -1.7741 -0.2277
   81PVA     O513646   0.704   0.633   1.633  0.2700 -0.6418  0.9373
   81PVA    H2813647   0.761   0.582   1.693  4.1911  1.8724 -0.2830
   81PVA    C1513648   0.595   0.551   1.832 -1.1715  0.2277  0.3517
   81PVA    H2913649   0.504   0.493   1.853  1.4797 -5.1157 -1.1289
   81PVA    H3013650   0.575   0.640   1.892 -0.9893  1.1018 -0.8452
   81PVA    C1613651   0.727   0.492   1.879 -0.0762  0.5250  0.7778
   81PVA    H3113652   0.765   0.417   1.809 -0.2986  1.3358 -0.2463
   81PVA    H3213653   0.800   0.573   1.890  2.0045 -1.2300  0.4940
   81PVA    C1713654   0.721   0.417   2.022  0.3918  0.5952  0.6819
   81PVA    H3313655   0.709   0.489   2.104 -0.4858  1.0053  0.2089
   81PVA     O613656   0.608   0.319   2.024  0.1112  0.1171  0.2831
   81PVA    H3413657   0.520   0.359   2.028  0.5252  1.3666 -1.7349
   81PVA    C1813658   0.860   0.341   2.043  0.0313 -0.0798  0.0729
   81PVA    H3513659   0.884   0.352   2.149 -1.2534 -2.5909  0.6757
   81PVA    H3613660   0.935   0.393   1.982  1.7385 -2.6005 -0.1343
   81PVA    C1913661   0.864   0.194   2.002 -0.1263  0.7529 -0.4937
   81PVA    H3713662   0.872   0.200   1.893 -1.1357 -0.3471 -0.6540
   81PVA    H3813663   0.763   0.153   2.018  0.9757 -1.8920  0.1635
   81PVA    C2013664   0.988   0.107   2.044 -0.2646 -0.9747 -0.1667
   81PVA    H3913665   1.074   0.160   2.002 -2.5441  2.1487 -1.3729
   81PVA     O713666   0.982   0.104   2.183 -0.2887  0.4142  0.0412
   81PVA    H4013667   0.960   0.197   2.202 -4.1118  0.1238 -2.0910
   81PVA    C2113668   0.991   7.638   2.006  0.3203  0.1342 -0.7487
   81PVA    H4113669   0.957   7.624   1.902 -1.6657  1.6828 -0.3683
   81PVA    H4213670   0.924   7.557   2.037  1.0416  0.5160  2.1100
   81PVA    C2213671   1.128   7.566   2.018 -0.1047 -0.7613 -0.3628
   81PVA    H4313672   1.119   7.551   2.126 -2.7977  0.3556 -0.3790
   81PVA    H4413673   1.217   7.630   2.009 -0.2203 -0.7279 -1.3502
   81PVA    C2313674   1.161   7.430   1.951 -0.6114  1.0762 -0.9267
   81PVA    H4513675   1.173   7.346   2.020 -0.5273  2.9383  1.4748
   81PVA     O813676   1.085   7.390   1.833  0.8297  0.4133 -0.7262
   81PVA    H4613677   1.101   7.295   1.818 -2.4731 -0.4164  0.2152
   81PVA    C2413678   1.309   7.443   1.907  0.3491  0.2291 -0.1623
   81PVA    H4713679   1.307   7.522   1.831 -1.7969  0.6279  0.2247
   81PVA    H4813680   1.379   7.488   1.978  2.3343 -4.3437  1.1344
   81PVA    C2513681   1.383   7.311   1.880 -1.1760 -0.5118  0.3759
   81PVA    H4913682   1.331   7.264   1.795 -0.4931  0.2357 -0.4580
   81PVA    H5013683   1.377   7.242   1.965 -0.3500 -2.4377 -1.0315
   81PVA    C2613684   1.537   7.320   1.848 -0.4646 -0.2307  1.2230
   81PVA    H5113685   1.547   7.244   1.769  2.8664  2.1440 -0.9391
   81PVA     O913686   1.607   7.249   1.956  0.1304 -0.1805 -0.1123
   81PVA    H5213687   1.669   7.310   1.999 -1.2060 -0.3103  2.1544
   81PVA    C2713688   1.600   7.462   1.805 -0.2539  0.9099 -0.6930
   81PVA    H5313689   1.685   7.486   1.870  0.0210 -2.7104  0.5529
   81PVA    H5413690   1.541   7.547   1.840  1.0841  0.7342  2.3299
   81PVA    C2813691   1.658   7.482   1.660 -0.0955  1.2309  0.6867
   81PVA    H5513692   1.737   7.411   1.632 -1.7019 -0.2937 -0.1423
   81PVA    H5613693   1.582   7.466   1.583  1.2133  0.3065 -0.4734
   81PVA    C2913694   1.730   7.612   1.619  1.8147 -0.0308 -0.2826
   81PVA    H5713695   1.826   7.625   1.671  1.0964  2.8044  0.4655
   81PVA    O1013696   1.642   0.040   1.620 -0.5995  0.1405  0.5877
   81PVA    H5813697   1.585   0.039   1.698  0.2462 -0.6044  1.2287
   81PVA    C3013698   1.778   7.602   1.467 -1.0788  1.4710 -0.0850
   81PVA    H5913699   1.844   7.514   1.465 -3.5384 -0.5989  2.4327
   81PVA    H6013700   1.683   7.583   1.417 -0.9528 -0.1420  0.2599
   81PVA    C3113701   1.855   0.035   1.414 -0.4987 -0.4252  1.6320
   81PVA    H6113702   1.916   0.090   1.487 -1.8132 -0.2218  2.6135
   81PVA    H6213703   1.772   0.105   1.394 -1.2194 -1.5586  0.5035
   81PVA    C3213704   1.936   0.011   1.280 -0.4352  1.5985 -0.9005
   81PVA    H6313705   2.022   7.629   1.295 -0.7161  0.3317 -4.0578
   81PVA    O1113706   1.975   0.131   1.239  0.3318 -0.3550  0.4168
   81PVA    H6413707   1.995   0.118   1.145 -2.7778  0.9174 -0.5345
   81PVA    C3313708   1.845   7.632   1.172  0.2498  0.1481 -0.0232
   81PVA    H6513709   1.881   7.674   1.078  0.7630  2.7104  1.2294
   81PVA    H6613710   1.747   7.669   1.205  1.2800  2.4509  0.6184
   81PVA    C3413711   1.835   7.472   1.161 -0.7101 -0.0458  0.5125
   81PVA    H6713712   1.939   7.443   1.145 -1.2283 -1.2924 -0.8976
   81PVA    H6813713   1.803   7.430   1.257 -0.5816 -0.5806  0.3251
   81PVA    C3513714   1.753   7.420   1.035 -0.0782 -0.4067 -0.0743
   81PVA    H6913715   1.674   7.355   1.073 -0.8179  0.7128  0.3353
   81PVA    O1213716   1.702   7.533   0.961 -0.1473  0.6764 -0.2677
   81PVA    H7013717   1.785   7.559   0.918  1.0211 -2.6212 -0.2741
   81PVA    C3613718   1.829   7.336   0.937 -0.9810  0.4029 -0.7750
   81PVA    H7113719   1.803   7.362   0.833  1.4561  0.1830 -1.5132
   81PVA    H7213720   1.938   7.343   0.950 -1.1719  1.1046  0.5600
   81PVA    C3713721   1.800   7.181   0.944  0.2010  1.2568  0.9516
   81PVA    H7313722   1.703   7.185   0.994  0.4827 -0.7901  1.7428
   81PVA    H7413723   1.857   7.131   1.024 -2.6280 -3.1443  0.5646
   81PVA    C3813724   1.789   7.094   0.823 -0.6005 -0.3658  0.0717
   81PVA    H7513725   1.764   7.006   0.884  6.1923 -2.2338  0.9502
   81PVA    O1313726   1.694   7.158   0.746  0.6198  0.2064  0.3617
   81PVA    H7613727   1.634   7.201   0.809 -1.4820 -3.5728  1.2268
   81PVA    C3913728   1.934   7.074   0.758 -0.6284  0.0747 -0.5406
   81PVA    H7713729   1.982   6.991   0.810 -2.7034 -0.1928  1.0742
   81PVA    H7813730   1.982   7.168   0.787  0.7380 -0.8853  0.4002
   81PVA    C4013731   1.951   7.030   0.606 -0.8245  0.0569  0.2015
   81PVA    H7913732   1.911   6.928   0.604  0.7928 -0.6007  0.0772
   81PVA    H8013733   1.881   7.102   0.560 -0.7042  1.2839  1.8425
   81PVA    C4113734   2.090   7.043   0.518  1.0504 -0.3870 -0.2487
   81PVA    H8113735   2.154   6.981   0.581 -2.8535 -1.1260  3.3915
   81PVA    O1413736   2.044   6.978   0.402  0.0036  0.1781 -0.1294
   81PVA    H8213737   2.093   6.894   0.401 -0.1398  0.0113  2.1848
   81PVA    C4213738   2.155   7.171   0.476 -0.8870 -1.0530  0.2396
   81PVA    H8313739   2.073   7.243   0.470 -0.0109 -0.0830 -0.4882
   81PVA    H8413740   2.224   7.203   0.556 -3.0759  1.3768  1.3030
   81PVA    C4313741   2.251   7.177   0.351  1.7879  0.1894 -0.4032
   81PVA    H8513742   2.198   7.189   0.255 -1.0345  1.6857  1.1928
   81PVA    H8613743   2.280   7.072   0.340  0.3369 -0.2180 -0.6186
   81PVA    C4413744   2.385   7.266   0.356 -0.1967  0.9810 -0.7094
   81PVA    H8713745   2.470   7.203   0.383 -1.2314 -0.9912 -1.7880
   81PVA    O1513746   2.393   7.359   0.455  0.1748 -0.3877  0.1854
   81PVA    H8813747   2.340   7.432   0.419 -0.3806 -1.6703 -1.7538
   81PVA    C4513748   2.440   7.324   0.224 -0.6201 -0.7679 -0.6003
   81PVA    H8913749   2.397   7.423   0.203  3.6499  2.6615  4.2380
   81PVA    H9013750   2.425   7.242   0.153  2.4380 -0.4513 -1.7600
   81PVA    C4613751   2.592   7.335   0.228  0.0944  0.0074 -0.2771
   81PVA    H9113752   2.613   7.389   0.321  1.1927  2.4291 -1.8443
   81PVA    H9213753   2.645   7.239   0.234 -3.3945 -2.0104  1.8752
   81PVA    C4713754   2.655   7.426   0.116  0.3055 -0.0132  0.1124
   81PVA    H9313755   2.602   7.521   0.125  0.0139  0.1929 -2.8470
   81PVA    O1613756   2.628   7.366   8.094 -0.5811 -0.8077 -0.5898
   81PVA    H9413757   2.632   7.434   8.025 -0.6466 -1.0013 -0.7840
   81PVA    C4813758   2.808   7.447   0.118  0.4788 -1.4594 -0.7143
   81PVA    H9513759   2.848   7.427   0.218  1.5666  0.4488 -0.7126
   81PVA    H9613760   2.856   7.367   0.060 -1.9477 -2.8611 -0.9403
   81PVA    C4913761   2.862   7.585   0.051 -0.1437  0.6580  0.3093
   81PVA    H9713762   2.950   7.568   8.085  0.5139 -1.4050  1.6933
   81PVA    H9813763   2.867   7.650   0.140 -3.5697 -1.7530  2.5189
   81PVA    C5013764   2.755   7.649   8.064 -1.4431  0.6435 -0.2384
   81PVA    H9913765   2.683   7.677   0.044 -1.6679 -3.0963  1.1056
   81PVA    O1713766   2.703   7.579   7.949  0.1885 -0.3890  0.0131
   81PVA   H10013767   2.611   7.612   7.949  0.9178  1.7793 -0.2023
   81PVA    C5113768   2.808   0.101   8.012  0.0341 -1.4044 -0.8253
   81PVA   H10113769   2.855   0.135   0.008 -3.6326 -0.8365  1.0133
   81PVA   H10213770   2.868   0.093   7.921 -1.3183  3.5510 -2.4866
   82PVA     C113771   4.886   4.679   7.360  0.2483  0.4459 -0.0655
   82PVA     H113772   4.817   4.634   7.433  2.0826  1.2009  2.2482
   82PVA     H213773   4.982   4.629   7.347  0.4956  0.5560  1.1997
   82PVA     C213774   4.929   4.824   7.386  1.0213 -0.0828  0.2142
   82PVA     H313775   4.850   4.899   7.400  0.5763 -0.6446  0.8002
   82PVA     O113776   5.018   4.862   7.285  1.3783 -1.3844  0.4126
   82PVA     H413777   4.954   4.855   7.212  0.0019  0.9588  1.2787
   82PVA     C313778   5.007   4.834   7.526  0.8093 -1.6627 -0.2421
   82PVA     H513779   5.107   4.791   7.514  1.9177  0.6341  0.2060
   82PVA     H613780   4.948   4.788   7.607  0.1695  1.4502  1.2281
   82PVA     C413781   5.029   4.980   7.577  0.9648  0.2328  0.9356
   82PVA     H713782   5.058   4.975   7.682 -1.5664  3.3917  1.9352
   82PVA     H813783   5.123   5.027   7.546  1.5531  1.2530  3.9867
   82PVA     C513784   4.915   5.089   7.562 -0.3656  0.3395  0.0534
   82PVA     H913785   4.893   5.098   7.455 -0.5655  1.3815  0.1768
   82PVA     O213786   4.794   5.032   7.613  1.3084  0.2423  0.5206
   82PVA    H1013787   4.787   5.038   7.709  0.9636 -1.7053  0.6610
   82PVA     C613788   4.945   5.221   7.625 -0.2823  0.1973  0.4942
   82PVA    H1113789   5.031   5.195   7.688 -1.6186  0.1053  2.3541
   82PVA    H1213790   4.984   5.296   7.555  0.8744 -1.1066 -0.3256
   82PVA     C713791   4.846   5.311   7.697  1.1072  0.2520  0.4418
   82PVA    H1313792   4.811   5.261   7.788  2.4747 -1.4385  0.0924
   82PVA    H1413793   4.757   5.315   7.633  2.7438 -0.2547 -2.0221
   82PVA     C813794   4.887   5.445   7.752  1.2508  0.3772  0.6957
   82PVA    H1513795   4.961   5.490   7.685 -0.7838 -0.4110 -2.2878
   82PVA     O313796   4.972   5.420   7.872 -0.8502  0.5995  0.8747
   82PVA    H1613797   4.933   5.337   7.902  0.6252 -1.0029 -1.3347
   82PVA     C913798   4.765   5.536   7.794 -0.8546  0.8646 -0.1010
   82PVA    H1713799   4.769   5.568   7.899 -2.8176 -2.0930  0.9955
   82PVA    H1813800   4.676   5.473   7.796  0.7172 -1.5696 -1.4628
   82PVA    C1013801   4.761   5.669   7.710  0.9423 -0.4539 -0.1716
   82PVA    H1913802   4.664   5.711   7.740 -0.9067 -0.7665 -4.9437
   82PVA    H2013803   4.833   5.745   7.745 -0.9450  1.2992  0.0811
   82PVA    C1113804   4.764   5.663   7.552  0.4587 -0.8424 -0.7109
   82PVA    H2113805   4.861   5.626   7.518  0.7913  1.4078 -2.4228
   82PVA     O413806   4.659   5.569   7.537  0.4821  0.2043  0.1429
   82PVA    H2213807   4.663   5.564   7.440  0.4053  4.0078 -0.1935
   82PVA    C1213808   4.728   5.808   7.511  0.5168 -0.8890  0.7846
   82PVA    H2313809   4.646   5.833   7.580 -0.6993 -0.1027 -0.8485
   82PVA    H2413810   4.814   5.868   7.541  0.8957 -1.3828  0.6913
   82PVA    C1313811   4.675   5.831   7.367  0.7850  0.1872  0.5926
   82PVA    H2513812   4.587   5.767   7.354  0.9960 -0.2283  1.1756
   82PVA    H2613813   4.729   5.796   7.278 -2.0555  0.2968 -1.2824
   82PVA    C1413814   4.631   5.977   7.337  0.9233 -0.4331  1.1827
   82PVA    H2713815   4.571   6.014   7.421  0.5710  1.0372  0.3188
   82PVA     O513816   4.743   6.061   7.322  0.2918  0.0726  0.1682
   82PVA    H2813817   4.721   6.133   7.261  1.6779 -1.0062 -1.7020
   82PVA    C1513818   4.556   5.984   7.198 -0.4462 -0.0647  0.5111
   82PVA    H2913819   4.486   5.900   7.194  0.0878 -0.4947  0.1482
   82PVA    H3013820   4.626   5.958   7.118  0.2918  0.4955  0.9572
   82PVA    C1613821   4.475   6.111   7.153  0.3604  0.3305 -0.3978
   82PVA    H3113822   4.384   6.060   7.118  0.3855 -0.3813  0.5291
   82PVA    H3213823   4.443   6.174   7.237  2.2058  2.8153 -1.4532
   82PVA    C1713824   4.536   6.188   7.036 -1.6587  0.7439  0.1830
   82PVA    H3313825   4.530   6.146   6.935  1.3835 -0.8163  0.5378
   82PVA     O613826   4.668   6.209   7.064 -1.3048  0.1645  0.1259
   82PVA    H3413827   4.735   6.162   7.011 -2.6313 -1.7817  0.0593
   82PVA    C1813828   4.465   6.320   7.021 -0.1401  0.5015  1.3200
   82PVA    H3513829   4.402   6.337   7.109 -1.4492  3.5964 -0.0675
   82PVA    H3613830   4.532   6.407   7.019 -2.9435  2.8113  0.1759
   82PVA    C1913831   4.360   6.332   6.918  0.2406  0.1038 -0.8235
   82PVA    H3713832   4.275   6.388   6.958 -1.2804 -3.1003  0.8819
   82PVA    H3813833   4.319   6.231   6.903  2.0020 -0.7280 -0.3544
   82PVA    C2013834   4.399   6.385   6.777  0.5065 -0.0687 -0.1694
   82PVA    H3913835   4.439   6.294   6.731  0.2891  0.1965 -0.8877
   82PVA     O713836   4.493   6.482   6.790 -0.3306  0.0156  0.6992
   82PVA    H4013837   4.483   6.537   6.711 -0.1538 -1.8625 -0.6927
   82PVA    C2113838   4.292   6.420   6.683  1.1081 -0.4223  0.3946
   82PVA    H4113839   4.238   6.511   6.710 -4.2837 -3.2027  0.2236
   82PVA    H4213840   4.335   6.428   6.582 -1.2914 -1.1743 -0.7573
   82PVA    C2213841   4.177   6.312   6.639  0.6291 -1.2188 -0.9386
   82PVA    H4313842   4.182   6.335   6.532  3.0939  2.0275 -0.2702
   82PVA    H4413843   4.199   6.210   6.672  0.7352 -0.1796  2.6063
   82PVA    C2313844   4.035   6.355   6.696 -0.1793 -0.4179  0.0491
   82PVA    H4513845   4.037   6.460   6.728 -0.4759 -0.2316 -0.5229
   82PVA     O813846   3.949   6.365   6.588  0.2797 -0.0841 -0.1544
   82PVA    H4613847   3.858   6.384   6.618  0.4453  0.1673  0.1873
   82PVA    C2413848   3.991   6.261   6.807  0.3286  0.3889  1.2433
   82PVA    H4713849   3.980   6.160   6.766  1.0386  0.3065  1.2541
   82PVA    H4813850   4.074   6.252   6.878 -0.5866 -0.0974  2.3032
   82PVA    C2513851   3.854   6.291   6.880 -0.0006  0.1217  0.7833
   82PVA    H4913852   3.781   6.213   6.854 -1.3623  1.6395 -0.1616
   82PVA    H5013853   3.807   6.387   6.854  0.5497  0.0270 -0.6101
   82PVA    C2613854   3.869   6.293   7.028 -0.8660  0.2631 -0.4091
   82PVA    H5113855   3.932   6.208   7.055  1.3809  1.7062 -0.8978
   82PVA     O913856   3.750   6.300   7.090  0.1547 -0.0839  0.2385
   82PVA    H5213857   3.775   6.338   7.176  0.3637 -4.3846  2.3770
   82PVA    C2713858   3.949   6.413   7.075 -0.0320 -0.2114  0.0354
   82PVA    H5313859   3.927   6.507   7.022  2.0345 -1.9662 -4.4427
   82PVA    H5413860   4.055   6.400   7.053  0.0511 -0.7343  0.7252
   82PVA    C2813861   3.968   6.442   7.229  1.0924 -0.8952 -0.5272
   82PVA    H5513862   3.971   6.364   7.306 -1.6247  1.3389  2.0943
   82PVA    H5613863   4.061   6.500   7.232 -1.7510  4.3290  3.2026
   82PVA    C2913864   3.870   6.546   7.288  0.0935 -1.4557 -0.2005
   82PVA    H5713865   3.862   6.627   7.215 -0.5872 -0.5902  0.8024
   82PVA    O1013866   3.736   6.491   7.302 -0.4082  0.2245  0.3842
   82PVA    H5813867   3.683   6.524   7.376  2.1253  0.7220  2.1087
   82PVA    C3013868   3.919   6.575   7.425  0.4743 -0.8055 -1.9151
   82PVA    H5913869   3.958   6.486   7.476  3.0337  2.2497  1.9450
   82PVA    H6013870   3.826   6.607   7.474  0.3457 -3.7215 -0.0166
   82PVA    C3113871   4.024   6.689   7.445  0.7407 -1.2234  2.2723
   82PVA    H6113872   3.983   6.778   7.395  2.2102 -0.9168  1.5392
   82PVA    H6213873   4.122   6.674   7.397  1.2154  3.8094  1.0441
   82PVA    C3213874   4.042   6.713   7.596  0.4439 -0.0913 -0.6438
   82PVA    H6313875   4.050   6.612   7.637  0.5296 -0.0973 -0.6740
   82PVA    O1113876   3.905   6.757   7.625 -0.7407  0.0769 -0.4890
   82PVA    H6413877   3.878   6.810   7.548 -0.0297 -4.6415 -4.4872
   82PVA    C3313878   4.154   6.813   7.641  0.2812 -0.0273  0.2177
   82PVA    H6513879   4.161   6.828   7.749  2.8018  2.4244 -0.1628
   82PVA    H6613880   4.253   6.772   7.617  0.2691  1.1051 -2.1121
   82PVA    C3413881   4.137   6.955   7.571  0.5370  2.2084  0.3942
   82PVA    H6713882   4.032   6.949   7.540  1.1236  0.1619 -1.4375
   82PVA    H6813883   4.201   6.967   7.483  0.7667 -0.9155  0.0075
   82PVA    C3513884   4.165   7.077   7.668  1.2478  0.5149 -0.4516
   82PVA    H6913885   4.269   7.081   7.703  1.0381  0.6714  0.1804
   82PVA    O1213886   4.084   7.048   7.791  0.6185 -0.0219  0.2991
   82PVA    H7013887   3.998   7.045   7.746  0.8357 -1.7357 -0.0586
   82PVA    C3613888   4.133   7.211   7.605 -0.7054 -0.9221  0.0378
   82PVA    H7113889   4.234   7.231   7.567 -0.6552  2.1636  1.4781
   82PVA    H7213890   4.053   7.221   7.530 -0.9153  2.0541  0.5110
   82PVA    C3713891   4.105   7.330   7.711 -0.1884  0.1381 -0.1184
   82PVA    H7313892   4.200   7.374   7.744 -0.4935  1.8245 -1.3267
   82PVA    H7413893   4.043   7.287   7.791 -0.3888  3.9958  2.0536
   82PVA    C3813894   4.002   7.443   7.668 -0.2214 -0.5971 -1.2849
   82PVA    H7513895   3.897   7.413   7.673  0.0644 -1.4321  1.9131
   82PVA    O1313896   4.036   7.490   7.532 -0.1785 -0.2026 -0.0161
   82PVA    H7613897   3.952   7.531   7.506 -0.5334  0.8989  2.5434
   82PVA    C3913898   3.996   7.574   7.760  0.8485  0.1458 -0.1020
   82PVA    H7713899   3.949   7.530   7.849 -0.8963 -2.3393 -2.1084
   82PVA    H7813900   4.095   7.601   7.800  0.4636  0.5427  0.5785
   82PVA    C4013901   3.915   0.012   7.708 -0.8251 -0.3428  0.0682
   82PVA    H7913902   3.960   0.057   7.619 -1.3343  1.0323  0.4747
   82PVA    H8013903   3.917   0.094   7.781 -0.3849 -0.8262  0.6092
   82PVA    C4113904   3.765   0.007   7.662  0.0412  0.1808 -0.3028
   82PVA    H8113905   3.712   0.101   7.645  2.5738  2.3317  2.6623
   82PVA    O1413906   3.771   7.626   7.525  0.7957 -0.1165 -0.2429
   82PVA    H8213907   3.685   7.606   7.485  0.7365 -0.4067  0.0243
   82PVA    C4213908   3.675   7.606   7.748 -0.5659  0.2958 -0.3047
   82PVA    H8313909   3.733   7.515   7.767 -0.0627  1.2405  3.4661
   82PVA    H8413910   3.659   7.674   7.832 -2.0953 -1.3382  0.8208
   82PVA    C4313911   3.528   7.573   7.688  0.2408 -0.4151  0.8353
   82PVA    H8513912   3.537   7.495   7.611 -2.0235 -0.9598  1.0691
   82PVA    H8613913   3.508   7.675   7.651  0.2121 -0.0415  1.8639
   82PVA    C4413914   3.435   7.524   7.789  0.0824  0.1581  0.0252
   82PVA    H8713915   3.475   7.433   7.835 -0.3092  0.1818  0.4195
   82PVA    O1513916   3.417   7.622   7.896  0.1528 -0.7680  0.2566
   82PVA    H8813917   3.471   7.592   7.972 -0.0703 -1.1121  0.2803
   82PVA    C4513918   3.305   7.467   7.724  0.1993  0.6625  0.1485
   82PVA    H8913919   3.329   7.370   7.679  0.1664  0.0086  1.4891
   82PVA    H9013920   3.274   7.537   7.646 -3.2632  1.1038  1.7177
   82PVA    C4613921   3.196   7.438   7.828  0.0217 -0.0347 -0.7578
   82PVA    H9113922   3.199   7.337   7.870  2.7000  0.9307  1.6648
   82PVA    H9213923   3.204   7.506   7.914 -0.1771 -1.3664  0.3354
   82PVA    C4713924   3.050   7.463   7.766 -0.0643  0.0653 -0.1291
   82PVA    H9313925   3.053   7.415   7.667  0.2534  1.3649 -0.7700
   82PVA    O1613926   2.953   7.398   7.855 -0.5030 -0.3035  0.4697
   82PVA    H9413927   2.875   7.455   7.850 -0.2610  0.0753  0.9075
   82PVA    C4813928   3.008   7.598   7.720  0.9494 -0.2615  0.7907
   82PVA    H9513929   3.011   7.669   7.803 -0.8980 -0.0407  0.7194
   82PVA    H9613930   3.076   7.613   7.635 -3.4918  0.1740 -3.1320
   82PVA    C4913931   2.862   7.609   7.652 -0.0427 -1.7729  0.3008
   82PVA    H9713932   2.784   7.577   7.722 -1.1546 -1.7440 -0.8721
   82PVA    H9813933   2.835   7.533   7.577 -1.6650  0.7956 -1.9347
   82PVA    C5013934   2.818   0.054   7.586  0.3254 -0.5398  1.5774
   82PVA    H9913935   2.879   0.079   7.498 -1.6531  1.7870  0.7676
   82PVA    O1713936   2.684   0.021   7.532 -0.8102  0.7096  0.4078
   82PVA   H10013937   2.643   7.633   7.582  0.3379  1.6644  2.9200
   82PVA    C5113938   2.818   0.189   7.668 -0.0758 -0.6159 -0.4749
   82PVA   H10113939   2.866   0.279   7.628  6.4629 -3.2369  0.2445
   82PVA   H10213940   2.892   0.172   7.748 -0.2790 -2.7109 -0.6854
   83PVA     C113941   4.434   4.779   7.115  0.6174  0.0774 -0.1884
   83PVA     H113942   4.365   4.764   7.199 -0.4891  0.5311 -0.9888
   83PVA     H213943   4.455   4.884   7.136 -1.0180  0.3127  0.4182
   83PVA     C213944   4.350   4.761   6.990 -0.0626 -0.8967 -0.7988
   83PVA     H313945   4.348   4.655   6.961 -1.7970 -1.1269 -0.0077
   83PVA     O113946   4.426   4.830   6.897 -0.3567  0.7896  0.7436
   83PVA     H413947   4.413   4.797   6.806  4.1983 -2.9205  1.0628
   83PVA     C313948   4.204   4.822   6.979  0.0620 -0.8757  0.4138
   83PVA     H513949   4.198   4.931   6.988  0.8001 -0.7129 -0.7819
   83PVA     H613950   4.144   4.775   7.058 -4.1117  0.9180 -1.4215
   83PVA     C413951   4.131   4.790   6.853 -1.0020  0.7697 -0.1134
   83PVA     H713952   4.173   4.718   6.782 -2.6313 -0.2574 -0.0825
   83PVA     H813953   4.053   4.723   6.891 -1.7294  2.0367  0.7199
   83PVA     C513954   4.061   4.901   6.774  0.8910 -1.0079  0.9413
   83PVA     H913955   4.129   4.988   6.771 -1.8116  1.2435 -0.8331
   83PVA     O213956   3.939   4.922   6.830  0.0065 -0.7143  0.6327
   83PVA    H1013957   3.863   4.939   6.772 -0.0167 -2.7794 -0.0032
   83PVA     C613958   4.028   4.856   6.636 -0.2557  0.8101 -0.6006
   83PVA    H1113959   4.124   4.841   6.585 -0.2994  5.2250 -2.4302
   83PVA    H1213960   3.974   4.761   6.644 -0.9121  1.3483  3.6088
   83PVA     C713961   3.954   4.969   6.551  0.3431 -0.0873 -0.7845
   83PVA    H1313962   4.005   5.064   6.573  0.7822 -0.8704  2.0893
   83PVA    H1413963   3.854   4.963   6.596  0.4699  1.2344 -0.2660
   83PVA     C813964   3.936   4.953   6.395  0.2994 -0.3729  0.8059
   83PVA    H1513965   3.871   4.868   6.370 -1.2406  1.1541 -0.6557
   83PVA     O313966   4.066   4.937   6.331 -0.3500 -0.1793 -0.1548
   83PVA    H1613967   4.045   4.926   6.236 -0.4108  1.6544 -0.3985
   83PVA     C913968   3.866   5.083   6.344 -0.8493  0.1960 -1.0280
   83PVA    H1713969   3.940   5.155   6.382  2.0392 -1.9446 -2.1939
   83PVA    H1813970   3.767   5.111   6.382  0.1271  0.8680  1.1909
   83PVA    C1013971   3.864   5.116   6.182  0.6296  0.0924  0.2240
   83PVA    H1913972   3.784   5.190   6.167 -2.6221 -3.5915 -2.5727
   83PVA    H2013973   3.961   5.157   6.150  1.2306 -1.0812  0.4823
   83PVA    C1113974   3.834   4.999   6.093  0.6762  0.2469 -0.3076
   83PVA    H2113975   3.770   4.929   6.148  0.3241  0.1610 -0.8269
   83PVA     O413976   3.946   4.933   6.060  0.7723  0.4421 -0.4157
   83PVA    H2213977   3.985   4.984   5.986 -3.0705  0.5487 -2.6424
   83PVA    C1213978   3.769   5.035   5.957  0.3329  0.5908  0.1917
   83PVA    H2313979   3.819   5.120   5.908  0.6772  0.5606  0.4921
   83PVA    H2413980   3.669   5.074   5.979 -0.6019 -1.4707 -0.1108
   83PVA    C1313981   3.757   4.923   5.849 -0.2948  0.5805 -1.2610
   83PVA    H2513982   3.855   4.900   5.805 -0.1990 -2.5014  0.3254
   83PVA    H2613983   3.720   4.834   5.901  0.6678 -0.1648 -1.8435
   83PVA    C1413984   3.636   4.926   5.746 -0.3825  0.3542 -1.3192
   83PVA    H2713985   3.545   4.943   5.806 -0.9020  1.5586 -2.3841
   83PVA     O513986   3.660   5.050   5.670 -0.2169 -0.4460  0.5402
   83PVA    H2813987   3.721   5.047   5.593 -1.1861  0.3576 -0.2901
   83PVA    C1513988   3.636   4.795   5.662 -1.0222 -1.9270  0.7432
   83PVA    H2913989   3.608   4.706   5.721 -4.3065 -1.0531  0.6861
   83PVA    H3013990   3.741   4.779   5.634 -1.5202 -1.5638 -1.5425
   83PVA    C1613991   3.547   4.825   5.535  0.6108 -0.4921  0.0731
   83PVA    H3113992   3.583   4.916   5.486  1.4031 -1.8153 -1.9281
   83PVA    H3213993   3.440   4.845   5.546  0.5502  3.5253 -4.5682
   83PVA    C1713994   3.555   4.704   5.433 -0.5047  0.9470 -0.2777
   83PVA    H3313995   3.541   4.614   5.494  0.3015  0.1490 -1.2590
   83PVA     O613996   3.684   4.695   5.371  0.1245  0.3087 -0.4508
   83PVA    H3413997   3.703   4.601   5.390  2.7146  0.8212 -0.0058
   83PVA    C1813998   3.436   4.725   5.338  0.0798  0.0233  0.2577
   83PVA    H3513999   3.341   4.740   5.390 -1.5569 -3.3634 -1.4519
   83PVA    H3614000   3.448   4.811   5.270 -3.8306 -1.8989 -3.3405
   83PVA    C1914001   3.420   4.601   5.250 -0.1105  0.3363 -0.1296
   83PVA    H3714002   3.363   4.543   5.324  2.0420 -0.4948  0.9787
   83PVA    H3814003   3.501   4.531   5.225 -0.4826 -1.3672  2.8561
   83PVA    C2014004   3.337   4.620   5.126 -0.3301  0.2156  1.3931
   83PVA    H3914005   3.251   4.680   5.158 -0.1231  1.5742 -0.4549
   83PVA     O714006   3.406   4.705   5.042 -0.5533  0.3288  0.1390
   83PVA    H4014007   3.392   4.663   4.955  1.7054  2.2625 -1.2886
   83PVA    C2114008   3.295   4.492   5.055  0.0842 -0.4058 -0.8334
   83PVA    H4114009   3.381   4.461   4.995  0.7667  0.1071 -0.1445
   83PVA    H4214010   3.281   4.411   5.128 -0.9270  1.4746  1.1812
   83PVA    C2214011   3.167   4.493   4.968 -0.0260  0.7450 -0.1226
   83PVA    H4314012   3.111   4.400   4.980  1.1551  0.2442  2.1999
   83PVA    H4414013   3.103   4.572   5.009 -2.1085 -0.7255 -0.4386
   83PVA    C2314014   3.192   4.523   4.812  0.2639 -1.1087 -0.8818
   83PVA    H4514015   3.246   4.441   4.763  1.2807 -1.6730  1.1037
   83PVA     O814016   3.278   4.639   4.794 -0.4813 -0.1719  1.1628
   83PVA    H4614017   3.201   4.693   4.767 -0.2703 -1.9786 -4.0370
   83PVA    C2414018   3.067   4.576   4.737 -0.1866  0.0941  0.0604
   83PVA    H4714019   3.028   4.643   4.815 -2.3194  1.4739 -2.0312
   83PVA    H4814020   3.087   4.635   4.647  3.1778  1.5290  1.5832
   83PVA    C2514021   2.960   4.473   4.721 -0.1381 -0.2354  0.8736
   83PVA    H4914022   2.885   4.511   4.650 -5.0142 -1.0903  5.0378
   83PVA    H5014023   2.916   4.459   4.820 -0.0045  4.7864  1.9012
   83PVA    C2614024   2.991   4.337   4.664  0.5999  0.2430 -0.1939
   83PVA    H5114025   3.069   4.350   4.588 -1.7803 -2.6666 -3.4367
   83PVA     O914026   3.044   4.265   4.773  0.3135  0.4228 -0.1801
   83PVA    H5214027   2.966   4.235   4.824  1.0857 -1.9408 -0.2597
   83PVA    C2714028   2.872   4.247   4.611 -0.8529  0.8061  0.0594
   83PVA    H5314029   2.904   4.153   4.564 -1.7351 -1.0974  2.9794
   83PVA    H5414030   2.833   4.309   4.530 -3.4322  0.5404  1.0031
   83PVA    C2814031   2.741   4.228   4.704 -0.1493 -1.0613  0.0653
   83PVA    H5514032   2.652   4.229   4.640 -0.9155  1.3963  1.0749
   83PVA    H5614033   2.744   4.320   4.763  0.1430  1.2108 -3.2430
   83PVA    C2914034   2.738   4.104   4.794  0.0312  0.8005  0.2445
   83PVA    H5714035   2.632   4.076   4.805  0.2975  0.1841  1.4249
   83PVA    O1014036   2.791   4.135   4.922 -0.3263  0.3901 -0.0333
   83PVA    H5814037   2.745   4.080   4.988 -0.6591 -0.6016 -1.0574
   83PVA    C3014038   2.801   3.981   4.744  0.9290  0.6594  0.0936
   83PVA    H5914039   2.821   3.985   4.636  1.4441 -2.4122 -0.0034
   83PVA    H6014040   2.903   3.970   4.781  0.9143 -1.2339 -0.3400
   83PVA    C3114041   2.730   3.851   4.797  0.1638  0.7955 -0.0729
   83PVA    H6114042   2.646   3.834   4.727  0.6355 -1.6224 -0.1364
   83PVA    H6214043   2.677   3.860   4.893 -2.9403  2.1184 -1.7389
   83PVA    C3214044   2.803   3.707   4.790  0.5254 -0.1651 -0.5627
   83PVA    H6314045   2.901   3.731   4.833  0.8120 -2.3355  0.1053
   83PVA    O1114046   2.749   3.610   4.882  1.0340 -0.7376 -0.4552
   83PVA    H6414047   2.667   3.654   4.909  0.6762 -0.5806 -1.6995
   83PVA    C3314048   2.808   3.649   4.656  0.8036 -0.0346 -0.2779
   83PVA    H6514049   2.898   3.680   4.602  0.9346 -0.9314 -0.5911
   83PVA    H6614050   2.716   3.675   4.603  0.6757 -0.2040 -0.1406
   83PVA    C3414051   2.803   3.488   4.645  0.2392  1.1440  0.0196
   83PVA    H6714052   2.889   3.436   4.688 -3.5436 -2.9976  3.5679
   83PVA    H6814053   2.732   3.458   4.723 -1.8536 -0.4795 -2.3480
   83PVA    C3514054   2.752   3.418   4.511 -0.5354 -0.6585 -0.1067
   83PVA    H6914055   2.719   3.317   4.535 -1.4834  0.2840  3.1341
   83PVA    O1214056   2.641   3.481   4.446 -0.0660  0.2787 -0.6995
   83PVA    H7014057   2.653   3.488   4.350  2.4473  1.4111 -0.3821
   83PVA    C3614058   2.877   3.428   4.419  0.3201 -0.2271  1.0541
   83PVA    H7114059   2.891   3.537   4.421  0.9596 -0.3192  2.4862
   83PVA    H7214060   2.973   3.398   4.463  1.4447 -0.7620 -1.5701
   83PVA    C3714061   2.854   3.365   4.270 -1.2023 -0.3943  0.0588
   83PVA    H7314062   2.787   3.281   4.292 -1.0102  0.1061  2.8977
   83PVA    H7414063   2.945   3.317   4.230 -0.7627  1.4117 -1.2493
   83PVA    C3814064   2.810   3.470   4.166  0.0971 -0.4662  0.3299
   83PVA    H7514065   2.878   3.554   4.188 -1.2706 -0.3855  5.4514
   83PVA    O1314066   2.678   3.523   4.187 -0.0433 -0.1025 -0.9840
   83PVA    H7614067   2.696   3.618   4.173  2.7006 -0.8000 -3.3571
   83PVA    C3914068   2.839   3.436   4.016  0.7821 -1.3291 -0.4528
   83PVA    H7714069   2.801   3.334   4.004  0.0293 -1.4697  2.3446
   83PVA    H7814070   2.948   3.447   4.012  0.4627  2.4340 -2.3661
   83PVA    C4014071   2.778   3.517   3.911  0.0060  0.7930  0.1364
   83PVA    H7914072   2.793   3.626   3.913  0.4067  0.7364  1.4691
   83PVA    H8014073   2.669   3.517   3.911 -0.1525 -3.6002 -0.4809
   83PVA    C4114074   2.801   3.449   3.773  0.4529  1.2841  0.2440
   83PVA    H8114075   2.843   3.349   3.793  1.7584  2.0599  1.4763
   83PVA    O1414076   2.886   3.529   3.690 -0.9841  0.6664 -0.1605
   83PVA    H8214077   2.928   3.477   3.620 -0.4721 -2.0639  1.9857
   83PVA    C4214078   2.664   3.423   3.693 -0.1911  0.1610 -1.2419
   83PVA    H8314079   2.585   3.399   3.765  0.5479  6.7797  2.5664
   83PVA    H8414080   2.638   3.523   3.656 -0.0044  1.7126  2.4152
   83PVA    C4314081   2.680   3.312   3.580  0.2461 -0.0774  0.7827
   83PVA    H8514082   2.753   3.242   3.622  1.0908  1.3812  1.8640
   83PVA    H8614083   2.732   3.359   3.495  0.2773  0.3061  1.0137
   83PVA    C4414084   2.550   3.249   3.523 -0.7459  0.0482  1.0424
   83PVA    H8714085   2.507   3.333   3.467 -2.6222  0.1831  2.5674
   83PVA    O1514086   2.463   3.228   3.632  0.3225  0.3022 -0.2598
   83PVA    H8814087   2.402   3.156   3.608  0.6084  0.0029 -0.0929
   83PVA    C4514088   2.584   3.124   3.427 -0.1603 -0.4228  0.1966
   83PVA    H8914089   2.501   3.116   3.355 -1.0412  1.4841  0.9361
   83PVA    H9014090   2.673   3.144   3.366 -0.0535  1.4340  0.9026
   83PVA    C4614091   2.592   2.977   3.495  0.1580  0.1497 -0.1157
   83PVA    H9114092   2.662   2.994   3.578 -0.9772 -1.4259  1.2464
   83PVA    H9214093   2.493   2.963   3.541  0.4358  3.3760  1.7497
   83PVA    C4714094   2.619   2.857   3.390 -0.2339 -0.2135  0.3959
   83PVA    H9314095   2.708   2.882   3.331 -0.1826  1.7536  1.2524
   83PVA    O1614096   2.505   2.843   3.309  0.1210 -0.1042  0.3767
   83PVA    H9414097   2.513   2.752   3.275  2.3069  0.2058 -0.0267
   83PVA    C4814098   2.656   2.725   3.459  0.5943  0.2827  0.4195
   83PVA    H9514099   2.560   2.688   3.496  0.4423 -0.7884 -0.9791
   83PVA    H9614100   2.726   2.749   3.541  4.0004 -1.2428 -1.7800
   83PVA    C4914101   2.723   2.617   3.372 -0.7264  0.0594 -0.4439
   83PVA    H9714102   2.814   2.651   3.321  0.0020 -2.3166 -0.8554
   83PVA    H9814103   2.640   2.577   3.313 -2.1205 -2.0743  2.6539
   83PVA    C5014104   2.775   2.481   3.453  0.7489 -0.3095  0.1574
   83PVA    H9914105   2.758   2.399   3.381  2.4676  0.6755 -1.4580
   83PVA    O1714106   2.918   2.496   3.480 -0.8207 -0.5587 -1.6896
   83PVA   H10014107   2.952   2.428   3.541  2.3155  2.1783 -0.0269
   83PVA    C5114108   2.706   2.447   3.586  0.1568 -0.1457 -0.6309
   83PVA   H10114109   2.693   2.338   3.577  2.3738 -0.5326  0.2683
   83PVA   H10214110   2.597   2.462   3.576 -0.6029 -1.4554  3.5701
   84PVA     C114111   2.264   1.177   7.831  0.3383 -0.3401  0.1317
   84PVA     H114112   2.219   1.112   7.907 -2.2311 -0.2570 -1.2076
   84PVA     H214113   2.234   1.281   7.850 -0.0406 -0.0838 -1.6764
   84PVA     C214114   2.196   1.131   7.698 -0.1600 -1.3591  1.0710
   84PVA     H314115   2.271   1.112   7.620 -1.8790  1.3913 -1.4790
   84PVA     O114116   2.129   1.007   7.721  0.0788  0.7930  0.3766
   84PVA     H414117   2.170   0.961   7.796  0.0762  0.9506  0.4756
   84PVA     C314118   2.085   1.227   7.645  0.0974 -1.3803  0.8036
   84PVA     H514119   2.127   1.327   7.630  1.6206 -1.6459  2.8681
   84PVA     H614120   2.017   1.238   7.730 -2.8076  1.0066 -1.5719
   84PVA     C414121   2.008   1.196   7.516  0.7632 -0.5716 -0.2541
   84PVA     H714122   1.942   1.109   7.522  2.1946 -1.5882  4.2477
   84PVA     H814123   2.084   1.141   7.458 -0.6101 -0.9688 -1.7567
   84PVA     C514124   1.938   1.313   7.443 -0.2881 -0.5034  0.0424
   84PVA     H914125   2.022   1.378   7.414  0.1944 -1.1968 -0.1257
   84PVA     O214126   1.875   1.390   7.551  0.2933  0.0471  1.0893
   84PVA    H1014127   1.845   1.323   7.615  4.1811 -1.0956  2.0316
   84PVA     C614128   1.845   1.297   7.315  0.1181 -0.6849  0.0688
   84PVA    H1114129   1.881   1.210   7.259  2.2172  0.1653 -0.0176
   84PVA    H1214130   1.740   1.292   7.345 -0.1823 -1.0269 -1.0001
   84PVA     C714131   1.859   1.401   7.204 -0.0658 -0.5295  0.8168
   84PVA    H1314132   1.940   1.369   7.138 -0.1314 -0.6824  0.8107
   84PVA    H1414133   1.866   1.508   7.228  1.4346 -0.2675 -0.5914
   84PVA     C814134   1.747   1.395   7.095 -0.7630 -1.0480 -0.1309
   84PVA    H1514135   1.732   1.286   7.094  4.4336 -2.0395  0.0374
   84PVA     O314136   1.641   1.471   7.140 -0.2722 -0.2403 -0.9409
   84PVA    H1614137   1.659   1.519   7.223  0.0014  0.7586 -1.5589
   84PVA     C914138   1.779   1.448   6.953  1.0421 -0.1896 -0.0932
   84PVA    H1714139   1.677   1.472   6.920  0.5591  3.7352  3.3895
   84PVA    H1814140   1.828   1.546   6.962  0.4936 -0.1102  4.0228
   84PVA    C1014141   1.842   1.358   6.837 -0.8273  0.7509 -0.5127
   84PVA    H1914142   1.948   1.334   6.853 -1.5904 -2.4623  0.4738
   84PVA    H2014143   1.792   1.262   6.854 -3.4559  1.7286 -2.1180
   84PVA    C1114144   1.833   1.397   6.697  0.7486 -0.9510  0.2487
   84PVA    H2114145   1.874   1.497   6.682 -4.1952  1.3488  0.2672
   84PVA     O414146   1.909   1.311   6.616 -0.8687  0.4061 -0.5924
   84PVA    H2214147   1.888   1.218   6.634  1.4427 -0.0292  0.2235
   84PVA    C1214148   1.678   1.408   6.652  0.1825 -1.5669 -0.7683
   84PVA    H2314149   1.617   1.463   6.725  2.6724  2.5923 -1.5153
   84PVA    H2414150   1.693   1.485   6.576  0.6685 -2.9873 -2.1552
   84PVA    C1314151   1.614   1.289   6.576  0.0597  0.7292 -0.1858
   84PVA    H2514152   1.679   1.249   6.497 -3.0837  1.9635 -3.7278
   84PVA    H2614153   1.594   1.222   6.661 -2.8484  1.4301 -0.2020
   84PVA    C1414154   1.489   1.323   6.501  0.0185 -0.8192 -0.3492
   84PVA    H2714155   1.430   1.402   6.549 -0.3124 -1.1734 -0.1651
   84PVA     O514156   1.417   1.207   6.494 -0.1056  0.2926 -0.3719
   84PVA    H2814157   1.467   1.123   6.491  0.7902  0.6311  2.3031
   84PVA    C1514158   1.502   1.393   6.358 -0.1769 -0.5956 -2.0585
   84PVA    H2914159   1.564   1.330   6.292  0.3888 -1.1179 -1.0576
   84PVA    H3014160   1.559   1.487   6.367 -5.4164  3.2879 -4.1992
   84PVA    C1614161   1.381   1.449   6.297 -0.6406  0.0828  1.0668
   84PVA    H3114162   1.361   1.537   6.360 -3.7783  2.4707 -2.7482
   84PVA    H3214163   1.405   1.496   6.201  1.3958 -2.9722 -0.0526
   84PVA    C1714164   1.251   1.365   6.260 -1.2754 -0.2830  0.0746
   84PVA    H3314165   1.182   1.388   6.343 -0.4908 -2.4656  1.4190
   84PVA     O614166   1.273   1.227   6.275  0.1108 -0.4261  0.2013
   84PVA    H3414167   1.335   1.222   6.349  1.7838  1.2551 -0.9758
   84PVA    C1814168   1.173   1.397   6.131  0.1797 -0.1399  1.0825
   84PVA    H3514169   1.083   1.455   6.158 -0.2010  1.1634 -2.4225
   84PVA    H3614170   1.225   1.477   6.077  3.9288 -1.8136  1.9049
   84PVA    C1914171   1.126   1.281   6.034  0.5553  0.3445 -0.4477
   84PVA    H3714172   1.055   1.208   6.074 -1.7118  3.9059  2.8003
   84PVA    H3814173   1.214   1.225   5.999  1.3162 -0.7803  2.8536
   84PVA    C2014174   1.031   1.337   5.916  0.2572 -0.0142  0.2789
   84PVA    H3914175   1.031   1.446   5.927 -1.7794  0.1803 -0.9710
   84PVA     O714176   0.901   1.279   5.920 -0.4243  0.4399  0.0094
   84PVA    H4014177   0.928   1.210   5.983 -1.4291  0.1382  0.1180
   84PVA    C2114178   1.080   1.291   5.779  0.0654  0.0600 -0.2888
   84PVA    H4114179   1.020   1.211   5.734  0.0541 -0.7746  1.1539
   84PVA    H4214180   1.185   1.266   5.793 -0.4357 -1.7714  0.4444
   84PVA    C2214181   1.059   1.404   5.678 -0.9191  0.0658  0.9334
   84PVA    H4314182   0.956   1.440   5.685 -0.6728  0.4530  3.4281
   84PVA    H4414183   1.121   1.489   5.711  0.6398  0.4434 -2.4398
   84PVA    C2314184   1.106   1.391   5.531  0.4461  0.2093  0.7824
   84PVA    H4514185   1.033   1.328   5.479  2.0502 -1.2415  0.1945
   84PVA     O814186   1.234   1.343   5.527  1.1578 -0.0482  0.4323
   84PVA    H4614187   1.221   1.247   5.538 -3.1039  0.4639  1.7660
   84PVA    C2414188   1.120   1.539   5.468  0.2658  0.0479  0.0559
   84PVA    H4714189   1.176   1.591   5.547 -1.5501  2.1935  0.0489
   84PVA    H4814190   1.177   1.540   5.374 -1.9604  1.6078 -1.3785
   84PVA    C2514191   0.985   1.620   5.456 -0.3383 -0.0070  0.2065
   84PVA    H4914192   0.931   1.625   5.551 -1.9179 -1.0029 -0.5952
   84PVA    H5014193   0.909   1.562   5.403 -1.3503  0.5990  0.9601
   84PVA    C2614194   0.990   1.770   5.392  0.0547  0.3684 -0.0131
   84PVA    H5114195   1.089   1.813   5.413 -1.9039  4.2424  2.3834
   84PVA     O914196   0.897   1.851   5.465  0.4305 -0.5011  0.7242
   84PVA    H5214197   0.931   1.883   5.551 -1.0914 -1.5279  1.7610
   84PVA    C2714198   0.996   1.769   5.239 -0.2292  0.0434  1.3877
   84PVA    H5314199   0.917   1.701   5.206  1.7156 -3.4885  3.2966
   84PVA    H5414200   1.090   1.718   5.212 -1.5841 -2.3616  0.9130
   84PVA    C2814201   0.996   1.905   5.192 -0.9330  0.4618  0.1212
   84PVA    H5514202   0.906   1.967   5.204 -2.7459 -1.4345 -2.5278
   84PVA    H5614203   1.077   1.944   5.254 -0.2382 -1.9738  0.8516
   84PVA    C2914204   1.037   1.913   5.037  0.1394 -0.3427  1.2656
   84PVA    H5714205   0.964   1.858   4.976 -1.0688  0.9430  1.4991
   84PVA    O1014206   1.161   1.854   5.016 -0.3793 -0.6125  0.4211
   84PVA    H5814207   1.177   1.768   5.057  1.2470  0.9347  3.4129
   84PVA    C3014208   1.041   2.053   4.977  0.1452 -0.0961  0.5808
   84PVA    H5914209   0.945   2.103   4.999 -0.3911 -1.4378  1.4091
   84PVA    H6014210   1.126   2.108   5.019  1.6163 -1.5613 -0.3530
   84PVA    C3114211   1.067   2.070   4.813 -0.7186 -0.6673  0.2862
   84PVA    H6114212   1.023   1.981   4.766 -0.2994  0.2911 -2.1025
   84PVA    H6214213   1.174   2.077   4.788 -1.1464 -1.2311 -1.9254
   84PVA    C3214214   0.995   2.195   4.760 -0.5095  0.4954 -0.6383
   84PVA    H6314215   1.039   2.287   4.799 -1.7328  0.7548  0.1881
   84PVA    O1114216   0.859   2.195   4.804  0.5518 -0.7345 -0.4639
   84PVA    H6414217   0.833   2.287   4.783 -0.3169 -1.2067 -1.5988
   84PVA    C3314218   1.007   2.209   4.604 -0.1632 -0.9412 -0.1652
   84PVA    H6514219   0.930   2.279   4.568  0.2105 -0.5747 -0.2582
   84PVA    H6614220   0.984   2.115   4.553 -3.3557 -0.8730  0.8871
   84PVA    C3414221   1.133   2.268   4.557 -0.4533 -0.9033 -1.0420
   84PVA    H6714222   1.168   2.351   4.618 -0.3326 -2.2888  0.8656
   84PVA    H6814223   1.209   2.189   4.571 -0.9482 -0.9268  2.3001
   84PVA    C3514224   1.143   2.313   4.407  0.2167  0.4980  0.7206
   84PVA    H6914225   1.143   2.218   4.352  0.3520  1.0344 -0.2204
   84PVA    O1214226   1.036   2.393   4.370  0.3893  0.2836  0.9911
   84PVA    H7014227   1.075   2.476   4.336 -0.9058 -0.3385 -2.3470
   84PVA    C3614228   1.277   2.389   4.390  0.4352  1.0889 -0.2020
   84PVA    H7114229   1.266   2.484   4.443 -0.6329  0.1107  1.4220
   84PVA    H7214230   1.355   2.341   4.451 -1.5564 -3.0705 -0.5410
   84PVA    C3714231   1.334   2.425   4.260  0.6118 -0.5157  0.3199
   84PVA    H7314232   1.357   2.350   4.182  0.2146 -0.4893  0.1751
   84PVA    H7414233   1.425   2.485   4.273 -0.9862  1.8467  1.2247
   84PVA    C3814234   1.248   2.525   4.167  0.1280 -0.2330  0.3683
   84PVA    H7514235   1.185   2.463   4.102  0.9127 -0.5031 -0.1499
   84PVA    O1314236   1.178   2.618   4.246  0.2525 -0.6508  0.6861
   84PVA    H7614237   1.240   2.672   4.299 -1.0869 -0.9823  2.7159
   84PVA    C3914238   1.334   2.597   4.065 -0.3758 -0.3666  0.3527
   84PVA    H7714239   1.392   2.533   3.997  4.1995  4.3418 -0.8102
   84PVA    H7814240   1.268   2.655   4.000 -1.2184 -1.1798  0.4682
   84PVA    C4014241   1.441   2.699   4.117 -0.7168 -0.5453 -1.1485
   84PVA    H7914242   1.518   2.635   4.162  0.1908 -1.4529 -3.8192
   84PVA    H8014243   1.395   2.753   4.201  3.6610  0.6660  0.7296
   84PVA    C4114244   1.527   2.781   4.014  0.2182  0.1765 -0.1112
   84PVA    H8114245   1.596   2.717   3.958 -1.2579  0.9743 -3.1045
   84PVA    O1414246   1.435   2.822   3.922  0.0007  0.1136 -1.0223
   84PVA    H8214247   1.493   2.855   3.851  0.3417  1.3886 -0.1861
   84PVA    C4214248   1.622   2.885   4.078  0.9149  0.3354 -0.3643
   84PVA    H8314249   1.571   2.977   4.107 -2.4002 -1.2936 -0.5415
   84PVA    H8414250   1.661   2.848   4.174 -0.6139 -0.5891 -0.0586
   84PVA    C4314251   1.738   2.927   3.979 -0.3409 -0.3714  0.0623
   84PVA    H8514252   1.687   2.989   3.904  1.3214  3.2237  1.6921
   84PVA    H8614253   1.759   2.841   3.915  1.9133  1.9316 -2.5427
   84PVA    C4414254   1.873   2.968   4.038 -1.4460 -1.6226  0.9619
   84PVA    H8714255   1.904   3.056   3.980 -1.6370  1.5686  5.2291
   84PVA    O1514256   1.859   3.031   4.166 -0.4092  0.2145 -0.1644
   84PVA    H8814257   1.819   2.962   4.222  0.6665 -1.0240 -0.8917
   84PVA    C4514258   1.980   2.866   4.025  0.2739 -0.9399  0.8512
   84PVA    H8914259   1.993   2.851   3.917 -0.2673 -0.5558  0.7263
   84PVA    H9014260   1.939   2.768   4.053 -1.3551 -0.9437 -1.2498
   84PVA    C4614261   2.121   2.890   4.094 -0.1836 -1.1250  0.7477
   84PVA    H9114262   2.187   2.942   4.023 -3.5428 -0.8351 -2.4739
   84PVA    H9214263   2.121   2.958   4.181  2.0494 -0.3313  0.2005
   84PVA    C4714264   2.198   2.764   4.137 -0.4574  0.5479  0.4918
   84PVA    H9314265   2.150   2.723   4.226  0.5464 -0.9693  0.3684
   84PVA    O1614266   2.191   2.664   4.037  0.2359  0.1327  0.3910
   84PVA    H9414267   2.100   2.632   4.047 -0.7088  2.4981  0.0058
   84PVA    C4814268   2.345   2.773   4.177  0.8408  0.3392 -0.0249
   84PVA    H9514269   2.384   2.836   4.096 -2.1059  1.3932 -0.7706
   84PVA    H9614270   2.344   2.826   4.273 -1.2059 -1.0055  0.7566
   84PVA    C4914271   2.417   2.635   4.195 -0.2033  0.2236  0.7456
   84PVA    H9714272   2.426   2.581   4.100  0.4928 -2.2655  2.1298
   84PVA    H9814273   2.352   2.566   4.250 -4.3359  2.5428 -0.8050
   84PVA    C5014274   2.568   2.642   4.240  0.3489  1.4409 -0.8001
   84PVA    H9914275   2.619   2.730   4.199  1.1464  0.5574 -1.7787
   84PVA    O1714276   2.581   2.640   4.386 -0.2300 -0.0855  1.5255
   84PVA   H10014277   2.614   2.724   4.422  3.9445 -0.5593 -0.5331
   84PVA    C5114278   2.658   2.522   4.184 -0.7563 -0.5851 -0.3998
   84PVA   H10114279   2.726   2.474   4.255  2.1516  1.0139 -1.8569
   84PVA   H10214280   2.602   2.433   4.156  0.2990 -0.5260 -3.0951
   85PVA     C114281   2.712   1.250   0.001  0.4112  0.7495  0.1653
   85PVA     H114282   2.732   1.216   0.103  1.7849  0.2244 -0.2550
   85PVA     H214283   2.794   1.213   8.036 -0.6849 -1.6366  0.0163
   85PVA     C214284   2.709   1.401   0.014 -0.2860 -0.0247  0.3125
   85PVA     H314285   2.727   1.444   8.012 -3.1505 -0.8252 -0.6769
   85PVA     O114286   2.586   1.445   0.049  0.6957  0.1042 -0.7728
   85PVA     H414287   2.557   1.388   0.123  2.3862  3.8923  3.2287
   85PVA     C314288   2.810   1.465   0.105 -0.1535  0.2109  0.8439
   85PVA     H514289   2.823   1.410   0.199 -1.5583 -1.5827  0.0361
   85PVA     H614290   2.906   1.451   0.054 -1.9072  1.0397 -2.9669
   85PVA     C414291   2.792   1.618   0.134  0.7861  0.5607 -0.1593
   85PVA     H714292   2.686   1.638   0.153 -0.6922 -2.6380 -3.7200
   85PVA     H814293   2.816   1.677   0.044  1.7691  1.2626  0.5323
   85PVA     C514294   2.879   1.668   0.259 -0.1703  0.3933  0.4610
   85PVA     H914295   2.945   1.591   0.302  1.7767  3.2868  3.1471
   85PVA     O214296   2.791   1.691   0.364 -0.6280  0.2629 -0.8148
   85PVA    H1014297   2.850   1.718   0.437  1.0890  0.3162 -2.1671
   85PVA     C614298   2.976   1.783   0.239  0.6036 -0.4363  0.8127
   85PVA    H1114299   3.053   1.782   0.161  0.6455  2.6090  0.7110
   85PVA    H1214300   2.928   1.880   0.219 -1.3962 -1.2690  1.3240
   85PVA     C714301   3.058   1.806   0.378  0.0936 -0.9999  1.1879
   85PVA    H1314302   3.047   1.716   0.440  2.6243 -0.7296  2.1291
   85PVA    H1414303   3.001   1.884   0.430  3.6981  1.2665  2.0444
   85PVA     C814304   3.213   1.855   0.385 -1.0257  1.0840 -0.0432
   85PVA    H1514305   3.204   1.919   0.473 -2.5744 -0.3907  0.9389
   85PVA     O314306   3.298   1.748   0.434 -0.3792  0.1458  0.3683
   85PVA    H1614307   3.285   1.709   0.522  1.4616  1.3869  1.2631
   85PVA     C914308   3.295   1.941   0.279  0.7724 -1.1854 -1.3921
   85PVA    H1714309   3.249   2.036   0.309 -1.2338 -2.6005  0.3171
   85PVA    H1814310   3.239   1.914   0.189  1.2957  0.1573 -2.1568
   85PVA    C1014311   3.456   1.946   0.266 -0.6644  0.0747 -0.3565
   85PVA    H1914312   3.482   1.859   0.328 -2.9899  0.2206  0.9636
   85PVA    H2014313   3.481   1.916   0.163  2.9024 -1.1199  0.7130
   85PVA    C1114314   3.551   2.068   0.299  0.5239  0.1078 -0.1590
   85PVA    H2114315   3.473   2.144   0.289 -0.5655 -1.1272 -1.5348
   85PVA     O414316   3.602   2.040   0.422  0.0036 -1.1945  0.1052
   85PVA    H2214317   3.693   2.067   0.403 -0.9998  2.7499 -0.0434
   85PVA    C1214318   3.688   2.071   0.224  0.4260 -0.1674  0.4788
   85PVA    H2314319   3.731   1.975   0.190  0.6397  0.3835 -0.8597
   85PVA    H2414320   3.663   2.109   0.124 -0.6001 -0.8023  0.4754
   85PVA    C1314321   3.791   2.172   0.277 -0.2779 -0.8846  0.9747
   85PVA    H2514322   3.842   2.112   0.353 -2.9709 -0.8333  2.9755
   85PVA    H2614323   3.745   2.252   0.336 -0.4312 -1.2431  1.3467
   85PVA    C1414324   3.916   2.212   0.197 -0.9303 -0.4747  0.3922
   85PVA    H2714325   3.893   2.229   0.091  1.2289  0.6238  0.0445
   85PVA     O514326   3.998   2.096   0.176  0.3471  0.5263  0.4987
   85PVA    H2814327   3.999   2.054   0.264 -3.4743 -0.9283  0.0617
   85PVA    C1514328   4.011   2.331   0.239  0.7298  0.2418  0.0529
   85PVA    H2914329   3.988   2.360   0.342  3.2253 -2.2373  1.4630
   85PVA    H3014330   4.004   2.425   0.183  0.3095 -0.0132 -0.3270
   85PVA    C1614331   4.169   2.318   0.263 -0.8548 -0.0371 -0.7921
   85PVA    H3114332   4.184   2.220   0.311 -0.2825  0.1051 -0.6723
   85PVA    H3214333   4.223   2.315   0.168  0.9561  2.4124  0.0619
   85PVA    C1714334   4.248   2.423   0.342  0.1287 -0.1622 -1.0526
   85PVA    H3314335   4.188   2.513   0.320  3.3430  2.2395 -0.7568
   85PVA     O614336   4.395   2.439   0.285  0.0316  0.9738 -0.4280
   85PVA    H3414337   4.374   2.467   0.194 -0.6335 -2.6092 -1.5146
   85PVA    C1814338   4.273   2.406   0.495 -0.0543 -1.0034  0.2676
   85PVA    H3514339   4.321   2.307   0.502 -1.3615 -1.5910  1.2472
   85PVA    H3614340   4.176   2.368   0.529 -0.5183  1.0125  1.3346
   85PVA    C1914341   4.321   2.524   0.583  0.8342  1.2124 -0.3036
   85PVA    H3714342   4.305   2.613   0.520 -0.1161  2.2598  1.3577
   85PVA    H3814343   4.427   2.530   0.611  1.1802  2.2819 -1.7121
   85PVA    C2014344   4.255   2.548   0.722 -0.2667 -0.2156  0.4326
   85PVA    H3914345   4.169   2.612   0.700 -0.5198 -0.8769 -0.5760
   85PVA     O714346   4.222   2.425   0.782  0.7518 -0.6259  0.5289
   85PVA    H4014347   4.184   2.417   0.872  0.0511 -2.4006  0.1112
   85PVA    C2114348   4.318   2.640   0.837 -0.0198 -0.7085 -0.5640
   85PVA    H4114349   4.391   2.599   0.908 -0.6898  3.0208  2.5954
   85PVA    H4214350   4.395   2.707   0.797  2.2176 -1.0820  2.8192
   85PVA    C2214351   4.201   2.720   0.923  0.4720  0.1547  0.6471
   85PVA    H4314352   4.099   2.699   0.891  2.4234 -2.4918 -5.2410
   85PVA    H4414353   4.204   2.693   1.029  1.2221  2.1210  1.1854
   85PVA    C2314354   4.210   2.877   0.924  0.4007  0.1742  0.6388
   85PVA    H4514355   4.274   2.924   0.848 -1.4512  0.3426 -0.8893
   85PVA     O814356   4.270   2.917   1.041 -1.4522 -0.4468  0.0919
   85PVA    H4614357   4.221   2.955   1.116 -0.7268  3.2616 -1.1052
   85PVA    C2414358   4.068   2.950   0.921  0.4246  0.1488  0.1516
   85PVA    H4714359   4.013   2.924   0.830  0.2848  4.3696 -1.2194
   85PVA    H4814360   4.007   2.910   1.002 -2.8973  0.1473 -2.1217
   85PVA    C2514361   4.062   3.103   0.943 -0.1919 -0.0275 -1.1847
   85PVA    H4914362   4.098   3.163   0.858 -0.6170  2.0426  0.0222
   85PVA    H5014363   4.137   3.118   1.022  0.7243 -0.1742 -2.0035
   85PVA    C2614364   3.939   3.192   0.995  0.3807  0.1672 -0.8412
   85PVA    H5114365   3.837   3.162   0.968 -0.7760 -1.6105  4.3087
   85PVA     O914366   3.935   3.182   1.137 -0.4029 -0.4878  0.3176
   85PVA    H5214367   4.029   3.177   1.164 -0.0193  1.4153 -0.5217
   85PVA    C2714368   3.945   3.340   0.943 -0.7392 -0.1602  0.3763
   85PVA    H5314369   3.938   3.335   0.833  0.7172 -4.3111  0.3042
   85PVA    H5414370   4.041   3.372   0.985 -1.6062 -1.6988  3.8468
   85PVA    C2814371   3.847   3.448   1.009  0.4121  0.3551 -0.0492
   85PVA    H5514372   3.868   3.444   1.117  2.4865 -1.7725 -0.4416
   85PVA    H5614373   3.747   3.405   1.011  1.9964 -4.0343 -2.2552
   85PVA    C2914374   3.849   3.603   0.970 -0.1362 -1.2156  0.6508
   85PVA    H5714375   3.837   3.634   0.865  1.3423 -1.1392  0.4742
   85PVA    O1014376   3.986   3.650   1.003  0.3700  0.7994  0.7711
   85PVA    H5814377   4.014   3.744   0.999 -0.7566  1.1405  0.7010
   85PVA    C3014378   3.764   3.701   1.054 -0.4575 -0.0813 -0.4563
   85PVA    H5914379   3.660   3.669   1.040 -0.1486 -0.5115 -1.9229
   85PVA    H6014380   3.778   3.690   1.162  1.2476  2.0364 -0.3833
   85PVA    C3114381   3.780   3.850   1.005  0.1163  0.1137 -0.6821
   85PVA    H6114382   3.722   3.872   0.914  0.1452  2.1411 -0.2573
   85PVA    H6214383   3.885   3.858   0.976  0.2736 -3.6106 -1.6944
   85PVA    C3214384   3.740   3.970   1.098 -0.0041  0.5582  0.0666
   85PVA    H6314385   3.787   3.967   1.197  2.9754 -1.3679 -1.2518
   85PVA    O1114386   3.597   3.953   1.113 -1.2069  0.9728 -0.1269
   85PVA    H6414387   3.596   3.856   1.103  4.8859  0.5441 -0.4100
   85PVA    C3314388   3.786   4.113   1.046 -0.3373  0.0281 -0.1075
   85PVA    H6514389   3.832   4.101   0.948 -2.3072  0.1258 -1.0912
   85PVA    H6614390   3.699   4.166   1.006 -0.0408  4.4196  4.2176
   85PVA    C3414391   3.865   4.216   1.134 -0.0288  0.6848  0.4440
   85PVA    H6714392   3.795   4.229   1.218 -0.4766  2.1117 -0.1305
   85PVA    H6814393   3.949   4.153   1.167  1.2414  1.9627 -0.2533
   85PVA    C3514394   3.920   4.343   1.067  0.3911 -1.6552 -0.4581
   85PVA    H6914395   3.914   4.314   0.961 -2.2308 -1.5405 -0.4043
   85PVA    O1214396   3.811   4.438   1.075 -1.0914 -0.1946  0.5759
   85PVA    H7014397   3.834   4.508   1.011 -0.9862 -0.2979  0.5002
   85PVA    C3614398   4.058   4.402   1.120  0.3813 -0.8681  0.0277
   85PVA    H7114399   4.042   4.493   1.178  2.1391 -0.7369  0.3505
   85PVA    H7214400   4.099   4.335   1.196  2.5294  2.2806  1.8708
   85PVA    C3714401   4.175   4.406   1.012  0.5604  0.0654  0.0725
   85PVA    H7314402   4.138   4.474   0.934 -0.3556  2.2893  2.2971
   85PVA    H7414403   4.158   4.309   0.965 -1.6253  0.2126  0.4326
   85PVA    C3814404   4.320   4.405   1.053  0.9781 -0.1613 -1.3398
   85PVA    H7514405   4.355   4.479   1.127  1.8472 -2.3233  0.5288
   85PVA    O1314406   4.351   4.279   1.118  0.3783 -0.2708  0.1555
   85PVA    H7614407   4.447   4.263   1.123  1.3508  2.6293 -3.5924
   85PVA    C3914408   4.416   4.420   0.931  0.1042 -0.0461  0.0149
   85PVA    H7714409   4.520   4.433   0.965  1.0518 -2.1109 -1.8404
   85PVA    H7814410   4.386   4.513   0.881  4.1596  2.0638  1.0449
   85PVA    C4014411   4.419   4.294   0.833 -0.1301  0.2306  0.8824
   85PVA    H7914412   4.416   4.191   0.870  0.0895 -1.0891 -2.4375
   85PVA    H8014413   4.327   4.300   0.773 -2.5041 -3.2212  3.7309
   85PVA    C4114414   4.531   4.302   0.724 -0.2907  0.0592  1.6571
   85PVA    H8114415   4.527   4.403   0.684 -1.3324 -0.6135 -0.0194
   85PVA    O1414416   4.668   4.302   0.787 -0.1216 -0.3094  0.0915
   85PVA    H8214417   4.731   4.270   0.720  3.5788 -0.4755  3.3286
   85PVA    C4214418   4.517   4.182   0.623 -0.3399  0.4502  0.8581
   85PVA    H8314419   4.604   4.118   0.644 -1.5869 -1.0885  1.5526
   85PVA    H8414420   4.435   4.122   0.665 -1.3359  3.3051  3.3316
   85PVA    C4314421   4.513   4.211   0.455 -0.1426 -0.5417 -0.6674
   85PVA    H8514422   4.613   4.236   0.417  1.2322  2.3478  4.0229
   85PVA    H8614423   4.436   4.289   0.445  2.2945  2.6770  2.7757
   85PVA    C4414424   4.445   4.084   0.386 -0.1289  1.0561 -0.2211
   85PVA    H8714425   4.376   4.049   0.464 -1.2130  0.6029 -1.3545
   85PVA    O1514426   4.541   3.983   0.365 -0.1936 -0.5394  0.1181
   85PVA    H8814427   4.597   4.022   0.296  0.0846  1.0386  1.1659
   85PVA    C4514428   4.359   4.110   0.254 -1.9102 -0.4083  0.6364
   85PVA    H8914429   4.251   4.099   0.273 -1.6444 -0.7891  2.0336
   85PVA    H9014430   4.365   4.220   0.255 -3.6289 -0.2855  1.3097
   85PVA    C4614431   4.386   4.044   0.119  0.6136 -0.7894  0.1847
   85PVA    H9114432   4.362   3.937   0.125 -0.6203 -0.4575  4.1690
   85PVA    H9214433   4.493   4.048   0.098  0.9633  1.4077  2.0805
   85PVA    C4714434   4.318   4.102   8.083 -0.1017  0.6659 -1.0748
   85PVA    H9314435   4.261   4.020   8.038 -1.9236  0.1986  1.8354
   85PVA    O1614436   4.203   4.168   0.031  0.1167 -0.2122  0.1187
   85PVA    H9414437   4.200   4.264   0.013 -2.9740 -0.6230 -2.7499
   85PVA    C4814438   4.406   4.164   7.972 -0.8406 -0.4840 -0.2538
   85PVA    H9514439   4.482   4.227   8.019  0.9807 -3.7324  1.4895
   85PVA    H9614440   4.470   4.084   7.932 -3.2311 -2.3365 -0.6146
   85PVA    C4914441   4.340   4.241   7.852 -0.1306 -0.5624  0.9206
   85PVA    H9714442   4.271   4.320   7.883  1.8427  2.0266 -0.7889
   85PVA    H9814443   4.279   4.175   7.790  2.2162 -0.5748 -1.6060
   85PVA    C5014444   4.440   4.334   7.762  0.9070 -0.8192  1.4237
   85PVA    H9914445   4.447   4.289   7.663 -0.4226  2.8188 -0.5066
   85PVA    O1714446   4.570   4.344   7.814  0.1440  0.1180  1.4533
   85PVA   H10014447   4.616   4.313   7.735 -0.8171 -2.1403  1.6948
   85PVA    C5114448   4.378   4.472   7.704 -0.0467  0.5202  0.0396
   85PVA   H10114449   4.345   4.543   7.781 -4.1066 -0.6549 -0.3961
   85PVA   H10214450   4.306   4.454   7.623 -2.5902  1.8767  1.8660
   86PVA     C114451   3.641   1.818   3.775  0.6534 -0.1100 -0.9323
   86PVA     H114452   3.739   1.820   3.825  0.6933  2.1687 -0.9998
   86PVA     H214453   3.583   1.756   3.844 -0.8544  0.9875 -1.1795
   86PVA     C214454   3.643   1.751   3.643  0.3419 -0.5416 -0.0065
   86PVA     H314455   3.710   1.801   3.571 -1.3948  3.4524  0.9121
   86PVA     O114456   3.503   1.760   3.597 -0.6132  0.0930  0.3633
   86PVA     H414457   3.461   1.673   3.609 -1.2591  0.6934  3.2429
   86PVA     C314458   3.692   1.603   3.652  0.0889 -0.5833  0.2455
   86PVA     H514459   3.611   1.534   3.679 -3.4073  2.7319 -0.9701
   86PVA     H614460   3.767   1.592   3.732 -1.2468 -1.7682  1.3819
   86PVA     C414461   3.742   1.548   3.517 -0.1534 -1.6191  1.1795
   86PVA     H714462   3.680   1.594   3.440 -1.2548  2.5652  4.2246
   86PVA     H814463   3.829   1.615   3.508 -3.0883  2.4647  0.5401
   86PVA     C514464   3.771   1.391   3.504  1.0082  0.0855  0.3471
   86PVA     H914465   3.676   1.339   3.490 -0.4343  3.0019 -1.8657
   86PVA     O214466   3.815   1.337   3.626  0.3436 -0.2532  1.0949
   86PVA    H1014467   3.742   1.321   3.688 -0.4742 -0.7832  0.0353
   86PVA     C614468   3.865   1.354   3.388 -0.9811  0.8920  0.6317
   86PVA    H1114469   3.821   1.387   3.294  2.0496 -2.1524 -2.1197
   86PVA    H1214470   3.964   1.399   3.404  1.5566 -3.4298 -1.2482
   86PVA     C714471   3.864   1.194   3.376  0.5554  0.3622 -0.5384
   86PVA    H1314472   3.771   1.150   3.338  0.5415  0.2906 -0.4230
   86PVA    H1414473   3.877   1.154   3.477  1.0792  0.4526 -0.5659
   86PVA     C814474   3.984   1.137   3.284 -1.0328  0.2976 -0.1036
   86PVA    H1514475   4.083   1.176   3.310 -0.6431 -0.7592  0.0670
   86PVA     O314476   3.950   1.164   3.149  1.1560  1.0281  0.5698
   86PVA    H1614477   4.020   1.202   3.093  1.1605  0.4964  0.2005
   86PVA     C914478   3.978   0.985   3.315 -0.2022 -0.8727  0.3617
   86PVA    H1714479   3.881   0.935   3.309  0.0925 -1.4703  0.5789
   86PVA    H1814480   4.012   0.987   3.419 -0.4615  0.9524  0.4542
   86PVA    C1014481   4.073   0.908   3.217  0.9019  0.0219 -0.3694
   86PVA    H1914482   4.027   0.906   3.118  0.8180  0.9582 -0.3643
   86PVA    H2014483   4.165   0.968   3.204 -0.3438  1.8232 -1.2632
   86PVA    C1114484   4.110   0.762   3.263  0.5237  0.2872 -0.7078
   86PVA    H2114485   4.157   0.769   3.362 -1.7550  0.3013  0.4488
   86PVA     O414486   3.989   0.697   3.284 -0.5051  0.1916  0.6276
   86PVA    H2214487   3.935   0.708   3.204 -2.1447  1.8685  1.8757
   86PVA    C1214488   4.185   0.678   3.157 -0.4460  0.1536  0.7678
   86PVA    H2314489   4.290   0.707   3.169 -0.1561 -0.9102  0.8833
   86PVA    H2414490   4.165   0.701   3.052  1.5794  1.3160  0.5864
   86PVA    C1314491   4.176   0.521   3.166  0.0387 -0.4445  0.4780
   86PVA    H2514492   4.071   0.493   3.155 -0.3361 -1.6808  5.0567
   86PVA    H2614493   4.207   0.488   3.266  0.6042  0.1357  0.5012
   86PVA    C1414494   4.270   0.420   3.083 -0.9739  0.2422  0.8505
   86PVA    H2714495   4.279   0.466   2.983  2.3915 -1.8196  0.0471
   86PVA     O514496   4.387   0.421   3.153 -0.5759  0.3588  0.0500
   86PVA    H2814497   4.357   0.427   3.246  1.1702 -4.0828  1.1264
   86PVA    C1514498   4.220   0.273   3.088  0.1757  0.5946  0.7630
   86PVA    H2914499   4.117   0.277   3.052  0.8572  2.1252 -1.2129
   86PVA    H3014500   4.205   0.260   3.195  3.8024  1.0083  1.4603
   86PVA    C1614501   4.309   0.170   3.021  0.8353  0.0327 -0.0612
   86PVA    H3114502   4.284   0.179   2.915 -2.9121  0.8588  0.7336
   86PVA    H3214503   4.409   0.200   3.053  1.2365  1.7431 -2.6180
   86PVA    C1714504   4.293   0.012   3.063 -0.6297 -0.2652 -0.1050
   86PVA    H3314505   4.382   7.676   3.124  0.4711  1.0997 -1.1822
   86PVA     O614506   4.179   7.680   3.142  0.0299  0.1011 -0.1987
   86PVA    H3414507   4.186   0.052   3.221 -2.8537  2.4905 -1.4693
   86PVA    C1814508   4.293   7.606   2.938  0.5334  0.8256  0.5352
   86PVA    H3514509   4.193   7.631   2.902  1.2029  1.7687 -0.7789
   86PVA    H3614510   4.348   7.653   2.855  0.5844  0.2125  0.2219
   86PVA    C1914511   4.316   7.451   2.944  0.5684 -1.6644 -0.6250
   86PVA    H3714512   4.261   7.422   3.034  0.2389  2.8002  0.8667
   86PVA    H3814513   4.424   7.438   2.959  0.8085 -0.2870 -1.0251
   86PVA    C2014514   4.266   7.387   2.801  0.4289  0.2198 -0.9223
   86PVA    H3914515   4.161   7.413   2.780 -0.0360 -2.4065 -2.2155
   86PVA     O714516   4.336   7.451   2.703 -0.2821  0.0981  0.3742
   86PVA    H4014517   4.418   7.402   2.684 -3.4605 -5.1640 -1.9367
   86PVA    C2114518   4.269   7.231   2.777 -0.1829  0.1740  0.1629
   86PVA    H4114519   4.351   7.173   2.820  0.8455  2.2692  1.1812
   86PVA    H4214520   4.166   7.207   2.808 -1.1290 -0.9303 -3.3800
   86PVA    C2214521   4.265   7.189   2.626 -0.0380 -0.0553 -0.1628
   86PVA    H4314522   4.346   7.229   2.564 -0.2296  1.3774  0.4560
   86PVA    H4414523   4.180   7.256   2.611  1.9871  2.8648  0.5089
   86PVA    C2314524   4.243   7.043   2.579  0.0179 -0.8548  0.7087
   86PVA    H4514525   4.269   6.992   2.673 -2.1450  1.5278  2.7526
   86PVA     O814526   4.105   7.022   2.553 -0.5613  0.2901  0.8626
   86PVA    H4614527   4.053   7.078   2.613 -1.8659 -0.5853  0.5951
   86PVA    C2414528   4.324   6.969   2.468 -0.8885  0.6549 -0.0443
   86PVA    H4714529   4.432   6.986   2.458 -0.4613 -0.8404  1.5426
   86PVA    H4814530   4.321   6.862   2.493 -0.0085  0.3885 -1.0075
   86PVA    C2514531   4.258   6.953   2.322  0.5431  0.3654 -0.7357
   86PVA    H4914532   4.260   7.053   2.277  0.2796  1.2291  1.0740
   86PVA    H5014533   4.156   6.922   2.348  1.6567 -1.9592  1.2011
   86PVA    C2614534   4.331   6.866   2.213  0.1771 -0.2401  0.4547
   86PVA    H5114535   4.321   6.759   2.232  1.6248 -0.3180  0.9498
   86PVA     O914536   4.467   6.888   2.202  0.5207  0.3640  0.1517
   86PVA    H5214537   4.511   6.825   2.143  2.7473  0.3087  1.7669
   86PVA    C2714538   4.265   6.869   2.069  0.0383 -0.2136  1.5080
   86PVA    H5314539   4.249   6.968   2.023 -0.4588 -1.9867 -2.5315
   86PVA    H5414540   4.165   6.824   2.075 -0.1722 -0.2138 -0.9761
   86PVA    C2814541   4.333   6.780   1.965  0.4449  0.1491  0.3764
   86PVA    H5514542   4.415   6.833   1.915 -1.1024  1.1711 -1.1939
   86PVA    H5614543   4.381   6.692   2.010 -3.6010 -4.2650 -2.9036
   86PVA    C2914544   4.262   6.744   1.833 -0.1689 -1.0449 -0.6405
   86PVA    H5714545   4.181   6.678   1.867 -4.3317  1.9288 -3.5988
   86PVA    O1014546   4.203   6.859   1.777 -0.5177 -0.0031  0.0205
   86PVA    H5814547   4.131   6.883   1.838  2.2504  0.3516  3.4522
   86PVA    C3014548   4.357   6.681   1.733  1.2593 -0.8222  2.3123
   86PVA    H5914549   4.412   6.596   1.773  0.9440  0.3894  5.6335
   86PVA    H6014550   4.442   6.749   1.722  2.0151 -2.1006 -4.4733
   86PVA    C3114551   4.293   6.656   1.591 -0.2988  1.1007  0.6658
   86PVA    H6114552   4.278   6.754   1.544 -3.4167  1.3444  1.9269
   86PVA    H6214553   4.199   6.599   1.595  0.8362 -1.4904 -3.2804
   86PVA    C3214554   4.369   6.576   1.488 -0.3570  0.7276 -0.1375
   86PVA    H6314555   4.456   6.637   1.465 -1.4638  2.9984  1.3199
   86PVA    O1114556   4.410   6.449   1.545  0.0931 -0.7116 -0.4408
   86PVA    H6414557   4.349   6.375   1.531  1.5739 -1.8127 -1.3928
   86PVA    C3314558   4.291   6.543   1.363  0.3372 -0.6314  0.4885
   86PVA    H6514559   4.226   6.623   1.325 -0.0507 -2.3944 -2.9789
   86PVA    H6614560   4.209   6.475   1.388 -2.5845  2.9842  1.7273
   86PVA    C3414561   4.367   6.483   1.250  0.0673 -0.0497  0.9132
   86PVA    H6714562   4.409   6.572   1.203  2.4400 -1.1316  0.8321
   86PVA    H6814563   4.449   6.412   1.270  3.2358  2.8046 -0.8662
   86PVA    C3514564   4.277   6.432   1.126  0.4383 -0.1979  0.9569
   86PVA    H6914565   4.220   6.518   1.089  0.9529 -0.5365 -0.7189
   86PVA    O1214566   4.177   6.352   1.173  0.4219  0.6366 -0.6818
   86PVA    H7014567   4.093   6.387   1.140  1.0165  0.7731 -2.1118
   86PVA    C3614568   4.335   6.343   1.004 -0.4581 -0.7266  0.6601
   86PVA    H7114569   4.343   6.419   0.925 -1.4296 -3.4531 -2.2870
   86PVA    H7214570   4.435   6.307   1.033  0.6603  0.7529 -1.1325
   86PVA    C3714571   4.249   6.221   0.942 -0.3279  0.1299  1.3538
   86PVA    H7314572   4.251   6.126   0.996  3.9026 -3.0268 -3.3523
   86PVA    H7414573   4.144   6.249   0.952 -0.8295 -0.1328 -1.9979
   86PVA    C3814574   4.279   6.193   0.786  0.7875  0.8907  0.0501
   86PVA    H7514575   4.353   6.264   0.746  0.2954  1.0581 -0.5647
   86PVA    O1314576   4.142   6.195   0.735  1.1076  0.7760  0.1428
   86PVA    H7614577   4.118   6.101   0.719 -1.6856  0.9472  2.4579
   86PVA    C3914578   4.340   6.056   0.736 -0.7760 -0.3862  0.8264
   86PVA    H7714579   4.450   6.065   0.737 -0.6114 -0.3134 -3.1434
   86PVA    H7814580   4.312   5.980   0.811 -2.4038 -1.6810 -1.0111
   86PVA    C4014581   4.310   6.004   0.590  0.5430  1.1232  0.3570
   86PVA    H7914582   4.203   5.981   0.576  0.1122  1.9566  1.9961
   86PVA    H8014583   4.316   6.097   0.532  0.6954  5.5684  6.4909
   86PVA    C4114584   4.403   5.886   0.554  0.1086 -0.4505 -0.2681
   86PVA    H8114585   4.428   5.826   0.642  1.1972 -0.1581 -0.3642
   86PVA    O1414586   4.533   5.941   0.527  0.5775 -0.2448  0.3903
   86PVA    H8214587   4.549   5.952   0.432 -2.4339 -0.4863 -0.2432
   86PVA    C4214588   4.374   5.784   0.432 -0.7022  0.7614  0.6841
   86PVA    H8314589   4.270   5.750   0.445 -0.0056 -0.7435  2.6397
   86PVA    H8414590   4.377   5.837   0.336  2.0204 -3.6638 -2.0358
   86PVA    C4314591   4.471   5.664   0.409 -0.0040 -1.7814  0.0693
   86PVA    H8514592   4.483   5.604   0.500  2.8825  2.3171  2.7942
   86PVA    H8614593   4.573   5.704   0.397 -0.7429  0.2283  0.0885
   86PVA    C4414594   4.432   5.585   0.289 -0.9912  0.5893 -0.3116
   86PVA    H8714595   4.375   5.651   0.223 -2.1620 -0.6811 -0.6031
   86PVA    O1514596   4.337   5.494   0.329  0.4524  0.3211 -0.0596
   86PVA    H8814597   4.262   5.543   0.368 -0.9309 -2.8712  1.6515
   86PVA    C4514598   4.537   5.522   0.190 -0.4181  0.8708 -0.7852
   86PVA    H8914599   4.610   5.600   0.166  0.7291  0.1231  0.1676
   86PVA    H9014600   4.586   5.452   0.258  1.0631  3.2015  0.6619
   86PVA    C4614601   4.468   5.447   0.071  0.5227 -0.1317  0.6874
   86PVA    H9114602   4.364   5.412   0.080  1.7541 -4.7565 -0.2132
   86PVA    H9214603   4.467   5.501   8.073 -4.6914  0.0827  0.5462
   86PVA    C4714604   4.549   5.318   0.043  0.0469 -0.1949  0.5812
   86PVA    H9314605   4.553   5.261   0.137  0.4890 -0.3823  0.4516
   86PVA    O1614606   4.674   5.358   8.095  0.3541 -0.6669 -0.6325
   86PVA    H9414607   4.656   5.351   7.999 -1.8042  1.9495 -0.5266
   86PVA    C4814608   4.482   5.210   8.054  0.3427  0.3583  0.4402
   86PVA    H9514609   4.436   5.255   7.965 -3.2545 -0.9321  1.4873
   86PVA    H9614610   4.395   5.167   0.008  0.8965 -2.8807 -1.0508
   86PVA    C4914611   4.571   5.090   8.025  0.0026 -0.5884 -0.2518
   86PVA    H9714612   4.676   5.117   8.011  0.2586 -2.1004 -1.5582
   86PVA    H9814613   4.581   5.027   0.018 -2.9662  0.1286  0.7123
   86PVA    C5014614   4.526   5.006   7.907 -0.4870 -0.9427  0.7196
   86PVA    H9914615   4.418   5.007   7.924 -0.1855  0.1190  2.8589
   86PVA    O1714616   4.581   5.076   7.793 -0.1632 -0.2933 -0.2074
   86PVA   H10014617   4.508   5.060   7.731 -1.7511  4.0989  0.1049
   86PVA    C5114618   4.586   4.866   7.897  1.2118 -0.3447  0.0094
   86PVA   H10114619   4.694   4.873   7.878  1.5563  2.7648  2.2702
   86PVA   H10214620   4.585   4.809   7.990  3.9809  0.6864  0.7801
   87PVA     C114621   3.563   2.233   3.625 -0.1855  0.1284 -1.1024
   87PVA     H114622   3.553   2.132   3.583 -0.4355 -0.5557  0.5168
   87PVA     H214623   3.462   2.273   3.634  0.1256  0.5037  1.7472
   87PVA     C214624   3.646   2.328   3.549  0.0829  0.5132  1.9669
   87PVA     H314625   3.682   2.407   3.617 -1.9156  1.3266  2.1459
   87PVA     O114626   3.768   2.267   3.486  0.8551 -0.1438  0.0916
   87PVA     H414627   3.735   2.189   3.437 -3.6503  0.0941  2.2409
   87PVA     C314628   3.564   2.388   3.428  0.4102 -0.9245  0.6162
   87PVA     H514629   3.564   2.311   3.349  1.2516  0.6946 -1.0347
   87PVA     H614630   3.635   2.464   3.393 -0.6398 -0.0978  0.2593
   87PVA     C414631   3.417   2.438   3.463  0.1076 -1.4758  0.4550
   87PVA     H714632   3.348   2.354   3.458 -4.0206  1.6662 -4.1392
   87PVA     H814633   3.409   2.477   3.566 -0.8197  1.2167 -0.5482
   87PVA     C514634   3.361   2.521   3.345  1.0358 -0.7621  0.8718
   87PVA     H914635   3.417   2.616   3.339 -0.1696 -0.1048 -0.6205
   87PVA     O214636   3.378   2.442   3.234  0.2767 -0.0408  0.4379
   87PVA    H1014637   3.304   2.476   3.180  0.8193  2.2992  1.0366
   87PVA     C614638   3.208   2.552   3.368  0.4912 -1.5737 -1.5637
   87PVA    H1114639   3.139   2.467   3.377  1.2869 -2.0377  1.1874
   87PVA    H1214640   3.207   2.594   3.469  0.3156  1.5850 -2.7492
   87PVA     C714641   3.165   2.668   3.281 -0.3234  0.2424  0.2333
   87PVA    H1314642   3.259   2.721   3.258 -1.4680  2.4613  0.4009
   87PVA    H1414643   3.100   2.732   3.341 -1.8882 -1.9524  1.0167
   87PVA     C814644   3.055   2.623   3.167 -0.9334  0.3049  0.4457
   87PVA    H1514645   2.953   2.605   3.205 -1.0838  1.1070  0.4407
   87PVA     O314646   3.088   2.504   3.104  0.2236 -0.3822 -0.2082
   87PVA    H1614647   3.016   2.439   3.110  0.1813 -0.4054 -0.8406
   87PVA     C914648   3.028   2.745   3.067  0.2596 -0.1832  0.2920
   87PVA    H1714649   3.122   2.797   3.045 -0.8991  1.8514 -0.1846
   87PVA    H1814650   2.977   2.700   2.981 -1.9009 -2.8241  2.7557
   87PVA    C1014651   2.937   2.859   3.126 -0.5167  0.6479  1.3561
   87PVA    H1914652   3.008   2.914   3.189  0.0263  0.6611  0.7458
   87PVA    H2014653   2.865   2.809   3.191 -0.2190 -4.2848 -1.5954
   87PVA    C1114654   2.882   2.959   3.013 -1.2745  0.3966  0.2491
   87PVA    H2114655   2.968   2.983   2.950 -0.0999  0.9174  1.9857
   87PVA     O414656   2.790   2.901   2.924  0.0104 -0.4992 -0.1988
   87PVA    H2214657   2.738   2.978   2.895 -1.8840 -0.5625  2.6473
   87PVA    C1214658   2.813   3.083   3.077  0.6295  1.0354  0.0524
   87PVA    H2314659   2.762   3.066   3.172  0.8900  0.4157  0.0841
   87PVA    H2414660   2.896   3.149   3.105  1.9263 -0.9280  1.0721
   87PVA    C1314661   2.717   3.170   2.982 -0.0950 -0.0240 -0.4834
   87PVA    H2514662   2.699   3.105   2.896 -0.5048  0.3156 -0.6551
   87PVA    H2614663   2.771   3.263   2.958 -0.7914  1.2655  2.4587
   87PVA    C1414664   2.572   3.209   3.025 -1.5087 -0.4544  1.4511
   87PVA    H2714665   2.524   3.254   2.937 -0.4528 -0.6478  0.7591
   87PVA     O514666   2.569   3.302   3.131 -0.3628 -0.5674 -1.3502
   87PVA    H2814667   2.476   3.304   3.160  0.6169 -2.4735  2.4933
   87PVA    C1514668   2.473   3.098   3.055  0.9591 -0.1896  0.3534
   87PVA    H2914669   2.491   3.030   2.971  1.0208 -1.0661  1.0581
   87PVA    H3014670   2.502   3.032   3.138 -1.1644 -1.4910  0.1154
   87PVA    C1614671   2.321   3.125   3.053 -0.4715  0.3465 -0.6012
   87PVA    H3114672   2.283   3.101   2.953  1.0017 -3.3124 -0.4413
   87PVA    H3214673   2.290   3.051   3.127 -1.9373  3.1328  1.7494
   87PVA    C1714674   2.276   3.276   3.092 -0.8516 -0.6764 -0.5150
   87PVA    H3314675   2.336   3.333   3.020 -0.4924  0.3751  0.5933
   87PVA     O614676   2.320   3.314   3.227  0.9263  0.2209  0.1196
   87PVA    H3414677   2.294   3.240   3.284 -2.5751  1.6162  0.5891
   87PVA    C1814678   2.123   3.292   3.058 -0.3300 -0.4412 -0.3268
   87PVA    H3514679   2.116   3.389   3.008 -0.6927  0.0247  0.5967
   87PVA    H3614680   2.089   3.213   2.991 -2.9230 -1.3027  1.8115
   87PVA    C1914681   2.022   3.301   3.179 -1.0495 -0.1456  0.5363
   87PVA    H3714682   2.074   3.268   3.269  1.1824  0.7214 -0.3734
   87PVA    H3814683   1.935   3.238   3.159 -3.1366  1.1698  4.4683
   87PVA    C2014684   1.964   3.437   3.224  0.0129  0.4670  0.1487
   87PVA    H3914685   2.028   3.526   3.212  1.0890 -0.4386 -1.1228
   87PVA     O714686   1.937   3.442   3.361 -0.5166 -0.5663 -0.3638
   87PVA    H4014687   1.874   3.369   3.371  0.8070 -1.8979 -1.3469
   87PVA    C2114688   1.840   3.478   3.135 -0.0443  0.6842  0.2668
   87PVA    H4114689   1.868   3.451   3.032 -1.0520 -0.6689  0.3134
   87PVA    H4214690   1.821   3.583   3.158 -1.0826  0.2559  1.4887
   87PVA    C2214691   1.713   3.394   3.176  0.1589 -0.4070 -0.4731
   87PVA    H4314692   1.737   3.288   3.194  3.9482  0.5187  0.8931
   87PVA    H4414693   1.672   3.453   3.259 -0.4754  0.9256 -1.7044
   87PVA    C2314694   1.608   3.400   3.058  0.1605 -0.4993  0.2930
   87PVA    H4514695   1.644   3.324   2.987  0.5531 -1.3285  1.3527
   87PVA     O814696   1.601   3.533   2.998 -0.3138  0.4852 -0.5416
   87PVA    H4614697   1.604   3.591   3.077  3.2193 -0.5666  0.2969
   87PVA    C2414698   1.474   3.334   3.095 -0.7993  0.4826 -0.1802
   87PVA    H4714699   1.405   3.350   3.011 -2.4355 -1.5700  0.6923
   87PVA    H4814700   1.439   3.397   3.178 -1.0714  0.6480 -0.4146
   87PVA    C2514701   1.482   3.188   3.119 -0.4562 -0.3325 -0.5112
   87PVA    H4914702   1.577   3.164   3.168 -0.9886  2.6329  2.3093
   87PVA    H5014703   1.487   3.140   3.020  1.0232  1.2700 -1.2620
   87PVA    C2614704   1.362   3.131   3.206  0.5898 -1.6866  0.5137
   87PVA    H5114705   1.324   3.217   3.261  5.5770  0.5133  1.0511
   87PVA     O914706   1.261   3.093   3.118 -0.2598  0.6722  0.0810
   87PVA    H5214707   1.172   3.120   3.146  0.0489  3.8749 -1.5725
   87PVA    C2714708   1.403   3.017   3.311  0.0398 -0.0329 -0.2056
   87PVA    H5314709   1.431   3.056   3.410  0.3295  3.1145 -1.4422
   87PVA    H5414710   1.495   2.963   3.288  1.9188 -0.5940  6.3817
   87PVA    C2814711   1.295   2.911   3.347  0.1529  0.3234  0.0243
   87PVA    H5514712   1.219   2.939   3.421  1.0999 -1.4856  1.7877
   87PVA    H5614713   1.260   2.876   3.250  0.8906  0.6522 -0.3693
   87PVA    C2914714   1.349   2.786   3.413 -0.6315  0.9279 -0.3966
   87PVA    H5714715   1.424   2.739   3.348 -0.6500  0.2921  0.0404
   87PVA    O1014716   1.406   2.824   3.548  0.4569 -0.5261 -0.3470
   87PVA    H5814717   1.344   2.789   3.613 -4.5979  0.7262 -3.8855
   87PVA    C3014718   1.225   2.690   3.439  0.2114  0.4484 -0.6255
   87PVA    H5914719   1.211   2.660   3.544 -0.7302  3.0863  0.0882
   87PVA    H6014720   1.125   2.716   3.400 -0.3191 -3.4704 -2.4715
   87PVA    C3114721   1.246   2.557   3.351  0.2612 -0.0789  0.0751
   87PVA    H6114722   1.255   2.597   3.250  0.3128 -2.4217 -0.9223
   87PVA    H6214723   1.151   2.504   3.367  0.0427 -0.5465 -2.3834
   87PVA    C3214724   1.361   2.456   3.385  0.4884  0.4116 -0.3305
   87PVA    H6314725   1.311   2.359   3.386 -0.5757  0.9402 -0.8450
   87PVA    O1114726   1.388   2.478   3.526 -0.6120 -0.5414 -0.1894
   87PVA    H6414727   1.315   2.450   3.584  0.2102 -1.0222  0.6373
   87PVA    C3314728   1.498   2.445   3.312  0.3365 -0.3065  0.5080
   87PVA    H6514729   1.541   2.351   3.349 -0.5212 -1.2736 -0.8682
   87PVA    H6614730   1.551   2.533   3.349  3.7095 -2.5949  1.6424
   87PVA    C3414731   1.498   2.461   3.159  0.0169 -0.4513  0.0562
   87PVA    H6714732   1.476   2.566   3.137  0.3311 -0.2009  0.8930
   87PVA    H6814733   1.414   2.406   3.115 -1.0174  1.2383 -0.2021
   87PVA    C3514734   1.637   2.420   3.096  0.3491  0.1500 -1.2540
   87PVA    H6914735   1.682   2.364   3.178 -0.3258 -0.3994 -1.2514
   87PVA    O1214736   1.600   2.335   2.993 -1.1236 -0.5053  0.3780
   87PVA    H7014737   1.604   2.387   2.911 -0.8340 -1.5595 -0.3027
   87PVA    C3614738   1.754   2.511   3.041  0.1079  0.0113 -1.0169
   87PVA    H7114739   1.731   2.551   2.941  1.1420  3.3210 -0.0243
   87PVA    H7214740   1.764   2.602   3.101 -1.1332 -0.5674  0.1244
   87PVA    C3714741   1.894   2.446   3.048 -0.1530  0.3887  0.2233
   87PVA    H7314742   1.904   2.401   2.948 -1.4285 -4.1771  1.8888
   87PVA    H7414743   1.898   2.355   3.108  1.1766  0.8056  0.8075
   87PVA    C3814744   2.017   2.524   3.094 -0.1610 -0.7822 -0.3365
   87PVA    H7514745   2.002   2.589   3.181  1.6412  0.9410 -1.2353
   87PVA    O1314746   2.040   2.622   2.996  0.5653 -0.7439 -0.6749
   87PVA    H7614747   1.960   2.678   2.998  0.9688 -0.1661 -0.2901
   87PVA    C3914748   2.145   2.458   3.119 -0.3899  0.0582  1.1133
   87PVA    H7714749   2.203   2.464   3.026 -1.5563  0.0087  0.3609
   87PVA    H7814750   2.130   2.349   3.128  0.8175 -0.5573 -2.6047
   87PVA    C4014751   2.219   2.487   3.243 -2.2609 -0.7440  0.6695
   87PVA    H7914752   2.268   2.585   3.240 -1.3293 -1.0228  3.4362
   87PVA    H8014753   2.159   2.497   3.334  0.8921  2.4254  2.6721
   87PVA    C4114754   2.322   2.371   3.261  0.3632 -0.1770  0.6489
   87PVA    H8114755   2.272   2.275   3.244 -1.1697  1.0621 -2.6046
   87PVA    O1414756   2.438   2.380   3.180 -0.3862  0.9685  0.2181
   87PVA    H8214757   2.503   2.309   3.195  0.0666  1.3693  0.1382
   87PVA    C4214758   2.368   2.368   3.408  0.7969  0.4855  1.1180
   87PVA    H8314759   2.434   2.453   3.430  0.8089  0.8946 -0.3694
   87PVA    H8414760   2.294   2.403   3.481  1.1116 -1.5581  2.5048
   87PVA    C4314761   2.432   2.237   3.446 -0.2892  0.8125 -0.1181
   87PVA    H8514762   2.541   2.251   3.447  0.2528 -1.6123 -4.0547
   87PVA    H8614763   2.411   2.165   3.366  3.8293 -0.2579 -0.4974
   87PVA    C4414764   2.382   2.180   3.584  1.3961  0.5483  0.6439
   87PVA    H8714765   2.273   2.178   3.595  1.1867 -1.7893 -0.9758
   87PVA    O1514766   2.449   2.246   3.687 -0.1933  0.2287 -0.3779
   87PVA    H8814767   2.458   2.193   3.768 -2.9709  1.7648  1.1023
   87PVA    C4514768   2.430   2.026   3.602  0.3841 -1.5130 -0.3860
   87PVA    H8914769   2.538   2.016   3.587  0.8480 -1.8677  2.6036
   87PVA    H9014770   2.377   1.959   3.533  3.3213 -4.1927 -0.2778
   87PVA    C4614771   2.407   1.985   3.743 -0.5133 -0.3158  1.0242
   87PVA    H9114772   2.475   2.040   3.809  2.9958 -0.2480 -2.3241
   87PVA    H9214773   2.310   2.031   3.763 -0.0798  0.8484  0.4796
   87PVA    C4714774   2.413   1.832   3.773 -0.9806 -0.7842 -0.8979
   87PVA    H9314775   2.508   1.828   3.828 -0.9017  2.5609 -0.5729
   87PVA    O1614776   2.404   1.764   3.660 -0.7622  0.3107  0.6385
   87PVA    H9414777   2.350   1.814   3.596  0.8106  0.0931 -0.9351
   87PVA    C4814778   2.295   1.783   3.856  1.0516  0.4146 -0.3665
   87PVA    H9514779   2.197   1.782   3.807 -1.2687 -1.2790  3.7255
   87PVA    H9614780   2.314   1.677   3.877 -0.2729  0.6492  2.5627
   87PVA    C4914781   2.281   1.865   3.994  0.0399  1.1013 -1.5665
   87PVA    H9714782   2.364   1.937   3.991  0.4472  0.7839  0.4057
   87PVA    H9814783   2.277   1.794   4.078 -4.8089 -0.0106 -2.4522
   87PVA    C5014784   2.152   1.957   4.004 -1.2747  0.5038 -0.4376
   87PVA    H9914785   2.130   1.992   3.902 -1.5944  1.0765 -0.1764
   87PVA    O1714786   2.051   1.880   4.057  0.5943  0.2698 -0.5577
   87PVA   H10014787   1.984   1.931   4.107  0.6107 -0.4625  0.2324
   87PVA    C5114788   2.182   2.086   4.084 -0.5328 -0.5808 -0.3931
   87PVA   H10114789   2.215   2.038   4.178 -3.2334 -1.4752  0.1898
   87PVA   H10214790   2.258   2.135   4.023  0.6796 -4.3981 -2.2842
   88PVA     C114791   4.052   5.394   7.550 -0.3678  0.3610 -1.1504
   88PVA     H114792   4.005   5.311   7.605 -2.6749  3.8551  2.7754
   88PVA     H214793   4.061   5.384   7.441  2.3496  4.5854 -1.5636
   88PVA     C214794   3.955   5.516   7.563 -0.2405 -0.2191 -0.5308
   88PVA     H314795   3.952   5.563   7.662 -2.0851 -2.7816  0.7136
   88PVA     O114796   3.999   5.617   7.477  0.2369  1.0132 -0.8118
   88PVA     H414797   4.070   5.582   7.420  0.1542 -1.3129  0.3642
   88PVA     C314798   3.815   5.476   7.509 -0.7043 -0.0441  0.0206
   88PVA     H514799   3.770   5.402   7.576  4.2981 -3.1945  0.4077
   88PVA     H614800   3.825   5.430   7.410  2.6408  0.1759  0.1402
   88PVA     C414801   3.736   5.615   7.491  0.2871  0.5232  0.5673
   88PVA     H714802   3.780   5.684   7.418  0.6810 -0.3975 -0.0835
   88PVA     H814803   3.724   5.666   7.588 -0.0267  0.4849  0.5481
   88PVA     C514804   3.591   5.582   7.428  0.3081 -0.5384  0.5177
   88PVA     H914805   3.530   5.666   7.462  0.8250 -0.3426  0.9810
   88PVA     O214806   3.543   5.458   7.482  0.6218 -0.1821 -0.2837
   88PVA    H1014807   3.462   5.439   7.432  0.4711  2.1967 -1.0584
   88PVA     C614808   3.586   5.571   7.272  0.1864  0.4943 -0.3541
   88PVA    H1114809   3.641   5.657   7.233  3.2584  0.2893  2.9098
   88PVA    H1214810   3.641   5.477   7.257  0.1378  0.5299 -0.7634
   88PVA     C714811   3.436   5.540   7.220 -0.4123  0.9828  0.6837
   88PVA    H1314812   3.383   5.629   7.185  1.0245  1.5500 -0.1103
   88PVA    H1414813   3.380   5.495   7.304 -0.2707 -2.0028 -0.7076
   88PVA     C814814   3.443   5.414   7.112  0.2668 -0.3511  0.5095
   88PVA    H1514815   3.518   5.343   7.150 -0.6140 -1.5107  0.1351
   88PVA     O314816   3.314   5.362   7.113  0.3351 -0.5398  0.3064
   88PVA    H1614817   3.292   5.309   7.192 -1.5125  1.8555  1.5474
   88PVA     C914818   3.483   5.443   6.964 -0.7062 -1.4481 -0.4200
   88PVA    H1714819   3.577   5.496   6.980  0.7017 -3.9579  0.2703
   88PVA    H1814820   3.411   5.507   6.911 -0.4216 -0.1374  0.7256
   88PVA    C1014821   3.510   5.308   6.882 -1.3245  0.1617 -1.1071
   88PVA    H1914822   3.565   5.234   6.942 -0.8358  2.5659  1.5936
   88PVA    H2014823   3.411   5.260   6.890 -2.7030  2.6784 -1.9948
   88PVA    C1114824   3.560   5.314   6.739  0.4274 -0.4281 -0.2187
   88PVA    H2114825   3.482   5.375   6.691 -1.0300 -3.0099 -1.3465
   88PVA     O414826   3.674   5.384   6.739 -0.6145  0.5285  0.0888
   88PVA    H2214827   3.707   5.390   6.830 -0.0408  1.5331 -0.1706
   88PVA    C1214828   3.557   5.178   6.658 -0.7976  0.3662 -0.4412
   88PVA    H2314829   3.487   5.107   6.704  1.7941 -1.7420  0.5089
   88PVA    H2414830   3.654   5.128   6.657  1.0963  3.7161 -0.5455
   88PVA    C1314831   3.522   5.199   6.515  0.3546  0.2406 -0.5952
   88PVA    H2514832   3.622   5.222   6.475  0.7123 -1.6778 -0.9328
   88PVA    H2614833   3.447   5.276   6.495  1.1331  0.8212 -1.3472
   88PVA    C1414834   3.482   5.060   6.449  0.4407 -0.4681  0.5077
   88PVA    H2714835   3.392   5.014   6.491  2.2763 -5.3938 -0.2856
   88PVA     O514836   3.578   4.956   6.469  0.3424 -0.5387 -0.9323
   88PVA    H2814837   3.539   4.883   6.419  0.7416  0.6559 -3.1406
   88PVA    C1514838   3.463   5.078   6.298 -0.6516 -0.9635  0.1369
   88PVA    H2914839   3.563   5.106   6.262  0.4958 -0.3376  3.4694
   88PVA    H3014840   3.399   5.163   6.273 -1.9499 -2.6352 -2.7448
   88PVA    C1614841   3.434   4.948   6.215  0.4106 -0.1992 -0.6485
   88PVA    H3114842   3.529   4.893   6.218 -1.2906 -3.2708  2.1539
   88PVA    H3214843   3.369   4.901   6.290 -1.2045  1.4923 -0.9071
   88PVA    C1714844   3.355   4.958   6.081  0.5467 -0.0832 -0.4934
   88PVA    H3314845   3.253   4.984   6.115  0.4094 -2.2095  0.8870
   88PVA     O614846   3.416   5.048   5.990 -0.5171  0.3770  0.3845
   88PVA    H3414847   3.469   5.108   6.045 -1.2680 -2.2691  4.4112
   88PVA    C1814848   3.346   4.811   6.038  0.4724  0.9639 -0.2330
   88PVA    H3514849   3.442   4.781   5.993  1.2971  0.3545  1.7842
   88PVA    H3614850   3.321   4.736   6.115 -3.4723  2.1855 -0.1250
   88PVA    C1914851   3.244   4.779   5.918  0.0622 -0.2804  0.7793
   88PVA    H3714852   3.170   4.853   5.883  2.5271  0.3145 -3.9565
   88PVA    H3814853   3.316   4.777   5.836  2.3651  2.1420  2.5486
   88PVA    C2014854   3.164   4.650   5.915  0.4949 -0.2421 -0.2443
   88PVA    H3914855   3.104   4.631   6.004 -1.0067 -2.4721 -1.6201
   88PVA     O714856   3.256   4.546   5.917 -0.8474 -0.1509 -0.1258
   88PVA    H4014857   3.309   4.554   5.998 -0.4917 -2.8215  0.0144
   88PVA    C2114858   3.068   4.655   5.798 -1.6784 -0.4079 -0.7219
   88PVA    H4114859   3.134   4.654   5.711 -0.6980 -2.9416 -0.0292
   88PVA    H4214860   3.009   4.747   5.809  2.3553  2.0597  5.3192
   88PVA    C2214861   2.980   4.531   5.786 -0.1086 -0.4739  0.2018
   88PVA    H4314862   2.938   4.501   5.882 -0.7753  2.3521  0.8688
   88PVA    H4414863   3.058   4.458   5.762  3.8268  2.9006  1.5130
   88PVA    C2314864   2.853   4.556   5.705  1.8038 -0.1546  2.2434
   88PVA    H4514865   2.882   4.625   5.624  3.4082 -1.4437  1.6590
   88PVA     O814866   2.758   4.612   5.792 -0.7826 -0.2738 -0.4724
   88PVA    H4614867   2.788   4.650   5.876 -2.2606 -0.3862  0.1407
   88PVA    C2414868   2.801   4.429   5.628 -0.7198  0.3658  0.5183
   88PVA    H4714869   2.887   4.401   5.566 -1.7744 -2.2582  0.1449
   88PVA    H4814870   2.789   4.343   5.696  0.7437 -0.0520  0.2840
   88PVA    C2514871   2.680   4.437   5.529  0.8913  0.5446 -0.1437
   88PVA    H4914872   2.698   4.488   5.433 -2.6318  1.0166 -0.6906
   88PVA    H5014873   2.594   4.480   5.582  0.0057 -1.0319 -0.2302
   88PVA    C2614874   2.627   4.298   5.494  0.0915  0.5010  0.2524
   88PVA    H5114875   2.559   4.277   5.578 -0.6266  0.3817 -0.3398
   88PVA     O914876   2.533   4.303   5.386 -0.1091  0.2794 -0.5284
   88PVA    H5214877   2.466   4.360   5.427  1.3344  0.4393  1.8409
   88PVA    C2714878   2.729   4.173   5.477  0.8145 -0.1221 -0.1393
   88PVA    H5314879   2.766   4.184   5.374 -4.5959  1.8322 -2.2421
   88PVA    H5414880   2.816   4.175   5.543 -1.8905 -3.2605  4.0171
   88PVA    C2814881   2.679   4.025   5.480 -0.1167  0.6269 -0.3605
   88PVA    H5514882   2.585   4.026   5.537  1.3311 -2.9720  2.5364
   88PVA    H5614883   2.667   3.989   5.377  2.6826  0.7432 -0.7956
   88PVA    C2914884   2.771   3.926   5.552 -0.0674  1.3281  0.6028
   88PVA    H5714885   2.835   3.972   5.629 -2.3310 -1.6244  4.5792
   88PVA    O1014886   2.857   3.884   5.441  0.1630 -0.0093 -0.8102
   88PVA    H5814887   2.930   3.839   5.486 -0.7163 -1.2807 -0.6126
   88PVA    C3014888   2.689   3.810   5.603 -0.5824 -0.4255  0.1007
   88PVA    H5914889   2.661   3.834   5.706  0.8192 -6.1147  2.1421
   88PVA    H6014890   2.600   3.802   5.540  0.2826  1.8507 -1.5699
   88PVA    C3114891   2.742   3.666   5.633 -0.1353 -0.0661 -0.2140
   88PVA    H6114892   2.849   3.681   5.652 -0.0462  0.0319 -0.7750
   88PVA    H6214893   2.743   3.611   5.538  2.4370  2.9406 -2.1488
   88PVA    C3214894   2.686   3.575   5.739 -0.4716 -0.3888 -0.5642
   88PVA    H6314895   2.583   3.587   5.776  0.1966 -2.9237  2.6647
   88PVA    O1114896   2.779   3.585   5.850  0.1883 -0.2293 -0.1712
   88PVA    H6414897   2.842   3.514   5.827  0.3327 -0.5646  1.1876
   88PVA    C3314898   2.666   3.423   5.702  1.2473  0.3108 -0.1402
   88PVA    H6514899   2.751   3.373   5.654  0.2476  0.4461 -2.1814
   88PVA    H6614900   2.588   3.414   5.625  0.4388  2.6748  0.3320
   88PVA    C3414901   2.615   3.341   5.826  0.3057  0.3468 -0.4275
   88PVA    H6714902   2.511   3.371   5.848 -0.1229 -2.1971  1.5803
   88PVA    H6814903   2.684   3.349   5.911 -3.0489 -0.2374  2.6232
   88PVA    C3514904   2.589   3.183   5.816 -2.1152 -0.1920  0.5311
   88PVA    H6914905   2.682   3.129   5.791 -2.0094 -0.4002  1.3412
   88PVA    O1214906   2.548   3.133   5.941 -0.6170  0.0326  0.5245
   88PVA    H7014907   2.455   3.152   5.965 -1.5499  0.1059 -2.7691
   88PVA    C3614908   2.483   3.134   5.719 -0.3616  0.1945  0.5780
   88PVA    H7114909   2.380   3.163   5.741 -0.1418  2.7252 -1.2750
   88PVA    H7214910   2.476   3.181   5.620  3.0115  1.7172  0.9083
   88PVA    C3714911   2.491   2.972   5.700  0.4851  0.2136 -0.3402
   88PVA    H7314912   2.402   2.921   5.738  0.5664  0.1223 -0.2704
   88PVA    H7414913   2.564   2.918   5.762 -2.6355 -1.1354  2.5219
   88PVA    C3814914   2.504   2.941   5.550  0.2256 -0.0003 -0.2319
   88PVA    H7514915   2.562   3.025   5.509 -0.6670  0.6013 -0.2817
   88PVA    O1314916   2.386   2.958   5.480 -0.1438 -0.7993  0.3638
   88PVA    H7614917   2.324   2.889   5.507 -1.0846  0.2613  0.9647
   88PVA    C3914918   2.566   2.797   5.518 -0.0600  0.0731  0.0450
   88PVA    H7714919   2.496   2.719   5.550 -1.3828  1.1055 -0.2626
   88PVA    H7814920   2.643   2.782   5.594 -0.9972 -1.0139  0.8075
   88PVA    C4014921   2.633   2.769   5.383  0.2998  0.7699 -0.2267
   88PVA    H7914922   2.569   2.819   5.309  0.3119  2.6579  0.9667
   88PVA    H8014923   2.729   2.821   5.371  1.3902 -0.6825  1.7579
   88PVA    C4114924   2.628   2.618   5.323  0.0486  0.5941 -0.8071
   88PVA    H8114925   2.583   2.609   5.223  0.2452 -0.2333 -0.8290
   88PVA    O1414926   2.573   2.526   5.420  0.2321 -0.2576  0.0761
   88PVA    H8214927   2.620   2.443   5.403  0.2358 -0.0386 -1.0596
   88PVA    C4214928   2.769   2.560   5.292 -0.6290 -0.5669  1.0615
   88PVA    H8314929   2.825   2.642   5.246  1.2939 -1.5823  1.4971
   88PVA    H8414930   2.820   2.553   5.389 -1.4654 -1.9487  1.4325
   88PVA    C4314931   2.766   2.426   5.208  0.7195 -0.3112 -0.9081
   88PVA    H8514932   2.688   2.364   5.252 -0.1813  2.4459  1.7262
   88PVA    H8614933   2.869   2.399   5.237  2.3231  4.2304 -1.4143
   88PVA    C4414934   2.742   2.432   5.056 -1.0648  0.3116  0.3485
   88PVA    H8714935   2.635   2.443   5.032 -1.4505  0.0712  1.8582
   88PVA    O1514936   2.827   2.529   5.001 -0.0912 -1.1311  0.2509
   88PVA    H8814937   2.884   2.490   4.933 -1.2078 -2.3437 -0.0184
   88PVA    C4514938   2.775   2.298   4.966 -0.0075  0.2059 -0.4925
   88PVA    H8914939   2.719   2.212   5.005 -2.2181 -0.0240 -3.7892
   88PVA    H9014940   2.876   2.270   4.999 -1.2561  2.5824  7.3235
   88PVA    C4614941   2.762   2.295   4.808 -0.0143  0.0729  1.6240
   88PVA    H9114942   2.820   2.226   4.745  0.1417  1.2045  0.4866
   88PVA    H9214943   2.787   2.395   4.772  0.5933 -0.6633 -0.1153
   88PVA    C4714944   2.618   2.264   4.773  0.1868  0.2719 -0.8359
   88PVA    H9314945   2.550   2.301   4.851  1.3970 -2.9451  2.0350
   88PVA    O1614946   2.603   2.115   4.773 -0.3221  0.3063  0.0669
   88PVA    H9414947   2.666   2.067   4.717  0.4490  2.8280 -1.3752
   88PVA    C4814948   2.566   2.315   4.643 -0.3073  0.0868 -0.4705
   88PVA    H9514949   2.585   2.421   4.626  2.6401  0.6917  4.7266
   88PVA    H9614950   2.595   2.270   4.547  2.0057  0.0891  0.1796
   88PVA    C4914951   2.407   2.315   4.628 -0.2792 -0.9170 -0.8113
   88PVA    H9714952   2.386   2.219   4.675  2.7321 -0.7076  1.2588
   88PVA    H9814953   2.388   2.395   4.701  0.6715 -0.9736 -0.4866
   88PVA    C5014954   2.344   2.358   4.491  0.4255  1.3219 -0.4340
   88PVA    H9914955   2.395   2.317   4.403  2.6922  0.1877  1.2945
   88PVA    O1714956   2.374   2.502   4.490  0.9327  0.1355 -0.5099
   88PVA   H10014957   2.358   2.539   4.402  2.7699 -0.7121 -1.2582
   88PVA    C5114958   2.184   2.341   4.497  1.0491 -0.8598  1.5343
   88PVA   H10114959   2.149   2.424   4.560 -0.2619 -0.0858 -0.1435
   88PVA   H10214960   2.171   2.247   4.553  1.4482 -0.2538  2.6881
   89PVA     C114961   4.390   5.544   7.284 -0.1174 -0.6771 -0.2088
   89PVA     H114962   4.383   5.648   7.318  5.1818 -0.8402  2.4677
   89PVA     H214963   4.493   5.512   7.306  0.1997  0.3635 -0.1570
   89PVA     C214964   4.358   5.516   7.138  0.6682 -0.2464 -0.3450
   89PVA     H314965   4.251   5.522   7.116  0.8323  3.0809 -0.6964
   89PVA     O114966   4.408   5.384   7.108  0.6497  0.0125 -0.2088
   89PVA     H414967   4.410   5.348   7.199  3.1444 -2.1865 -0.9914
   89PVA     C314968   4.425   5.627   7.041  0.8174 -0.8225  0.5595
   89PVA     H514969   4.529   5.655   7.060  0.9858  0.1979 -1.5238
   89PVA     H614970   4.372   5.703   7.100  2.3897 -2.1644  3.9869
   89PVA     C414971   4.365   5.622   6.897  0.6032  0.0031 -0.1795
   89PVA     H714972   4.382   5.517   6.870  0.5254 -0.0774  0.0870
   89PVA     H814973   4.259   5.649   6.903 -0.1605 -3.0064  2.4370
   89PVA     C514974   4.434   5.682   6.779  0.5017  0.8190  1.1482
   89PVA     H914975   4.518   5.617   6.750  0.1907  0.4872  0.9875
   89PVA     O214976   4.489   5.801   6.818 -1.1595 -0.0808 -0.3915
   89PVA    H1014977   4.517   5.792   6.911 -1.2487  1.6060 -0.1711
   89PVA     C614978   4.326   5.705   6.664 -0.0116 -0.5116 -0.9265
   89PVA    H1114979   4.265   5.789   6.699  1.9619 -0.1421  1.9235
   89PVA    H1214980   4.268   5.614   6.645  0.8891 -1.3674  0.3297
   89PVA     C714981   4.401   5.732   6.530 -0.2783 -0.3437 -0.0848
   89PVA    H1314982   4.480   5.657   6.526 -0.6057 -0.8402  1.7967
   89PVA    H1414983   4.443   5.833   6.519 -1.8681  0.2290 -1.3996
   89PVA     C814984   4.319   5.712   6.403  0.2679 -0.2329 -0.7388
   89PVA    H1514985   4.398   5.724   6.327  2.7104  1.6952  1.8812
   89PVA     O314986   4.239   5.602   6.392 -0.5062 -0.4465 -0.0622
   89PVA    H1614987   4.181   5.607   6.470  1.9410 -1.5729  1.9720
   89PVA     C914988   4.222   5.826   6.382 -0.2879  0.1029  0.3584
   89PVA    H1714989   4.267   5.916   6.426  1.8480 -1.5108  1.6450
   89PVA    H1814990   4.137   5.812   6.450  0.5239  0.0476  1.3833
   89PVA    C1014991   4.171   5.842   6.239 -0.3694 -0.6131 -0.1716
   89PVA    H1914992   4.256   5.878   6.179 -0.5392  1.0157  0.5339
   89PVA    H2014993   4.156   5.742   6.196  4.9980 -0.8786 -2.2565
   89PVA    C1114994   4.056   5.945   6.228 -1.5077  0.4903 -1.3882
   89PVA    H2114995   4.068   6.023   6.304  0.5558 -1.2590  0.1857
   89PVA     O414996   4.087   6.005   6.101  0.6097  0.1674  0.0847
   89PVA    H2214997   4.120   5.927   6.053 -0.5835 -1.3911  1.6502
   89PVA    C1214998   3.919   5.868   6.220 -0.6972  0.0179 -0.4540
   89PVA    H2314999   3.903   5.821   6.122 -1.8921 -0.8339  0.1285
   89PVA    H2415000   3.914   5.779   6.284  0.9264 -2.6825 -3.7467
   89PVA    C1315001   3.790   5.948   6.232 -0.6828 -0.0963 -0.5873
   89PVA    H2515002   3.778   6.000   6.327 -2.1489 -0.2464 -0.6542
   89PVA    H2615003   3.706   5.878   6.240 -2.5882  2.1904  0.9551
   89PVA    C1415004   3.762   6.029   6.097 -1.1584  0.3469  0.2817
   89PVA    H2715005   3.835   5.997   6.022 -1.4679  1.3443 -0.4586
   89PVA     O515006   3.795   6.162   6.117  0.3963  0.2942  0.0727
   89PVA    H2815007   3.708   6.193   6.146  0.4907 -0.9623  1.8662
   89PVA    C1515008   3.621   6.011   6.032  0.3894 -0.6919 -0.1605
   89PVA    H2915009   3.548   6.056   6.100  0.0101  0.9600 -1.5965
   89PVA    H3015010   3.599   5.903   6.031  1.4632 -0.9240 -1.0847
   89PVA    C1615011   3.599   6.061   5.888  1.8955 -0.7780  0.5657
   89PVA    H3115012   3.660   6.151   5.882  0.6611  0.8242  6.0552
   89PVA    H3215013   3.640   5.985   5.821  1.0334  0.2699 -1.2140
   89PVA    C1715014   3.447   6.089   5.841  0.0454  0.0580  0.0104
   89PVA    H3315015   3.410   6.167   5.909  2.5908  0.9000  0.5728
   89PVA     O615016   3.366   5.978   5.854 -0.4237 -0.0002  0.0647
   89PVA    H3415017   3.429   5.905   5.863  0.8259  1.0841  0.4476
   89PVA    C1815018   3.434   6.173   5.709 -0.0540 -0.2547  0.9135
   89PVA    H3515019   3.489   6.267   5.725 -1.5787  0.3916  2.7658
   89PVA    H3615020   3.471   6.109   5.628 -0.0263  2.6705 -1.5926
   89PVA    C1915021   3.291   6.187   5.645 -0.3283 -0.1769 -0.5307
   89PVA    H3715022   3.231   6.233   5.724 -1.7754  1.0289 -2.2441
   89PVA    H3815023   3.239   6.090   5.646 -0.1683 -0.2825 -1.6905
   89PVA    C2015024   3.272   6.266   5.523  1.2849  0.9929 -0.1239
   89PVA    H3915025   3.348   6.344   5.527 -0.6721  2.9743  0.5659
   89PVA     O715026   3.145   6.339   5.522 -0.6912  0.5396  0.7854
   89PVA    H4015027   3.066   6.283   5.532 -0.5966  0.5081  1.3781
   89PVA    C2115028   3.300   6.213   5.387  0.2129  0.4558  0.1639
   89PVA    H4115029   3.240   6.122   5.378 -1.6084  1.3588  2.3120
   89PVA    H4215030   3.401   6.171   5.397  0.6822  0.8706 -2.1585
   89PVA    C2215031   3.308   6.302   5.268  0.6628 -1.3616  0.5786
   89PVA    H4315032   3.210   6.332   5.230  0.5846  1.0393  2.4612
   89PVA    H4415033   3.348   6.398   5.301 -0.2686  0.1528 -2.3768
   89PVA    C2315034   3.381   6.246   5.136 -0.5674 -0.8511 -0.6125
   89PVA    H4515035   3.298   6.215   5.072 -3.1456  1.1395  1.5062
   89PVA     O815036   3.465   6.128   5.165 -0.5719 -0.8011 -1.1495
   89PVA    H4615037   3.512   6.153   5.247 -3.5082  1.7862 -0.0767
   89PVA    C2415038   3.458   6.364   5.082  0.7039 -0.3267  0.3284
   89PVA    H4715039   3.394   6.453   5.081 -0.8335 -1.3847  0.9823
   89PVA    H4815040   3.555   6.387   5.128  0.9940 -2.5226  0.9397
   89PVA    C2515041   3.499   6.351   4.930 -0.5845  0.6166 -0.7743
   89PVA    H4915042   3.573   6.270   4.922 -3.5575 -2.3953 -0.0335
   89PVA    H5015043   3.420   6.325   4.858  0.6967 -1.3294 -1.5669
   89PVA    C2615044   3.546   6.485   4.855 -0.2519  0.8286 -0.8918
   89PVA    H5115045   3.498   6.563   4.916 -3.1563 -1.5596  0.1335
   89PVA     O915046   3.689   6.494   4.839 -0.0364 -0.5084 -0.4403
   89PVA    H5215047   3.697   6.537   4.752 -2.4321 -0.9013 -0.9224
   89PVA    C2715048   3.492   6.491   4.713  0.5516  0.3905 -0.4782
   89PVA    H5315049   3.383   6.504   4.718  0.1795 -2.3997  0.2542
   89PVA    H5415050   3.490   6.394   4.662 -3.2934  0.5666 -0.9634
   89PVA    C2815051   3.543   6.596   4.613  0.4485 -0.3017  0.2593
   89PVA    H5515052   3.647   6.607   4.582  0.9288 -0.5588  1.7047
   89PVA    H5615053   3.488   6.560   4.525  0.5202 -1.1151  0.5319
   89PVA    C2915054   3.467   6.735   4.637 -0.3314 -0.3320  0.9448
   89PVA    H5715055   3.363   6.707   4.620 -0.2092 -1.2534  1.6480
   89PVA    O1015056   3.464   6.774   4.772 -0.1694  0.0834  0.2455
   89PVA    H5815057   3.550   6.811   4.799 -0.6021  3.9424 -2.7512
   89PVA    C3015058   3.514   6.854   4.553  0.8848  0.7869 -0.0205
   89PVA    H5915059   3.620   6.883   4.548  0.5693  1.7679 -1.5255
   89PVA    H6015060   3.481   6.843   4.449  1.0669  2.9800 -0.3587
   89PVA    C3115061   3.437   6.983   4.590  0.9044  0.1513 -0.2906
   89PVA    H6115062   3.445   6.997   4.698 -2.8025 -0.8869  0.2666
   89PVA    H6215063   3.328   6.976   4.603  0.9440  2.6156  2.0629
   89PVA    C3215064   3.476   7.111   4.506 -0.3718  0.4407 -0.2074
   89PVA    H6315065   3.582   7.137   4.504 -0.4187  0.5976 -0.9249
   89PVA    O1115066   3.404   7.122   4.387 -0.1648  0.8359  0.0441
   89PVA    H6415067   3.450   7.193   4.338  1.4873  0.5842  1.1416
   89PVA    C3315068   3.432   7.232   4.586  0.4272  0.7877  0.2365
   89PVA    H6515069   3.501   7.236   4.671  0.2027  1.7253  0.3874
   89PVA    H6615070   3.327   7.225   4.617  0.0434 -0.2770 -1.2134
   89PVA    C3415071   3.464   7.364   4.517 -0.5443  0.0408 -0.2616
   89PVA    H6715072   3.556   7.351   4.459  1.2749  0.0899  2.4455
   89PVA    H6815073   3.372   7.387   4.462 -2.7906 -2.8825  1.9221
   89PVA    C3515074   3.499   7.479   4.619 -0.6075  1.3441 -0.5835
   89PVA    H6915075   3.408   7.468   4.679 -2.2881 -2.8230 -3.4395
   89PVA    O1215076   3.627   7.455   4.676 -0.2463 -0.3098 -0.3021
   89PVA    H7015077   3.709   7.490   4.636 -0.1442 -1.1887 -0.8799
   89PVA    C3615078   3.503   7.624   4.558  0.2076 -0.0372  0.4376
   89PVA    H7115079   3.541   7.619   4.456  5.0938  1.9634  1.8370
   89PVA    H7215080   3.401   7.660   4.541  0.8197  1.3343 -0.4903
   89PVA    C3715081   3.576   0.044   4.635 -0.7457  0.7772  0.0173
   89PVA    H7315082   3.679   0.008   4.632 -1.6067 -1.9112  0.4668
   89PVA    H7415083   3.555   0.040   4.743  2.5001 -0.2864  0.7138
   89PVA    C3815084   3.538   0.180   4.571 -0.4122  0.2746 -0.6334
   89PVA    H7515085   3.430   0.195   4.558 -0.2635  3.1536  0.5824
   89PVA    O1315086   3.584   0.281   4.658  0.3095 -0.4512 -0.7091
   89PVA    H7615087   3.593   0.368   4.615 -0.6555 -0.2299 -0.4660
   89PVA    C3915088   3.591   0.215   4.427  0.1011  0.5762 -0.5520
   89PVA    H7715089   3.597   0.125   4.365  1.5144 -0.5553  1.1401
   89PVA    H7815090   3.695   0.250   4.434  1.8696 -4.1077  0.1787
   89PVA    C4015091   3.494   0.319   4.358 -1.2289 -0.3461  1.0065
   89PVA    H7915092   3.395   0.274   4.371 -1.7234  1.0355  2.2953
   89PVA    H8015093   3.473   0.398   4.431 -2.7713  0.2522 -0.0266
   89PVA    C4115094   3.505   0.389   4.216 -0.4633  0.6931  0.3662
   89PVA    H8115095   3.606   0.373   4.176 -1.2210 -0.9232 -0.9978
   89PVA    O1415096   3.485   0.527   4.224 -0.7322  0.4124  0.2958
   89PVA    H8215097   3.538   0.556   4.300 -1.8974  1.5461  0.6901
   89PVA    C4215098   3.391   0.322   4.119  0.0890 -0.6822 -0.3523
   89PVA    H8315099   3.397   0.213   4.114 -2.0965 -0.8553  0.1407
   89PVA    H8415100   3.289   0.334   4.157  0.9517  3.4255  1.1858
   89PVA    C4315101   3.390   0.393   3.969 -0.3137  0.0642  0.4654
   89PVA    H8515102   3.494   0.419   3.946  0.1764  1.9791  4.0313
   89PVA    H8615103   3.336   0.489   3.973 -0.8969  0.0967 -3.7588
   89PVA    C4415104   3.338   0.293   3.859  0.5790 -0.1916  1.3180
   89PVA    H8715105   3.245   0.242   3.887  0.7227 -0.1014  1.9891
   89PVA    O1515106   3.427   0.181   3.835 -0.8902 -0.0824  0.4808
   89PVA    H8815107   3.480   0.218   3.761 -0.2835  2.5009  2.0799
   89PVA    C4515108   3.316   0.373   3.714 -0.3722 -0.3224 -0.6813
   89PVA    H8915109   3.410   0.374   3.657  0.3722  1.4734  0.5118
   89PVA    H9015110   3.291   0.474   3.750  3.3245 -0.1276  1.8200
   89PVA    C4615111   3.214   0.310   3.626 -0.6310 -0.4040  0.1505
   89PVA    H9115112   3.228   0.202   3.636 -5.2440 -0.9591  4.9337
   89PVA    H9215113   3.109   0.340   3.641 -2.6239 -4.9231 -2.6531
   89PVA    C4715114   3.218   0.340   3.472  1.1205 -0.7731 -1.5305
   89PVA    H9315115   3.194   0.446   3.476  2.9453 -0.2979  2.4717
   89PVA    O1615116   3.350   0.314   3.416  0.1725  0.1678 -0.8139
   89PVA    H9415117   3.411   0.338   3.487 -0.5705 -1.5099  0.4452
   89PVA    C4815118   3.108   0.272   3.369  0.4547 -0.6588 -0.0333
   89PVA    H9515119   3.131   0.166   3.356 -1.0365 -0.9727 -0.3566
   89PVA    H9615120   3.013   0.280   3.424 -0.0715 -0.2355 -0.9723
   89PVA    C4915121   3.101   0.355   3.236 -0.3360  0.1210 -0.0676
   89PVA    H9715122   3.199   0.337   3.190 -2.0627  2.0369 -5.1212
   89PVA    H9815123   3.076   0.458   3.268  0.2039  0.0005  0.7971
   89PVA    C5015124   2.989   0.323   3.128  0.5854  0.4796  0.3277
   89PVA    H9915125   2.988   0.215   3.112 -2.5952  0.0574  2.5858
   89PVA    O1715126   3.034   0.388   3.015  0.2300 -0.0371 -0.0756
   89PVA   H10015127   2.991   0.348   2.938  0.5505 -0.6685  0.0696
   89PVA    C5115128   2.839   0.381   3.160  0.1999  0.7699  0.9266
   89PVA   H10115129   2.852   0.490   3.157  1.7886  0.5983  0.6818
   89PVA   H10215130   2.827   0.345   3.263 -1.6962 -1.4000  0.0096
   90PVA     C115131   1.168   1.934   4.063 -1.0970  0.1639 -0.0515
   90PVA     H115132   1.223   1.846   4.100  1.5757  0.3695 -3.0888
   90PVA     H215133   1.223   1.976   3.977 -1.7437  2.1744  0.4753
   90PVA     C215134   1.026   1.911   4.002  1.0168  1.8587 -0.5736
   90PVA     H315135   1.036   1.946   3.899  5.0692  1.9397 -0.3127
   90PVA     O115136   0.921   1.976   4.075 -0.1346 -0.1615  0.4118
   90PVA     H415137   0.918   2.066   4.038  2.4829  0.7338  2.1122
   90PVA     C315138   1.000   1.756   3.990 -0.0846 -0.2818  0.6701
   90PVA     H515139   1.072   1.711   3.921  0.1925 -2.4313  2.2535
   90PVA     H615140   1.024   1.708   4.086  2.2159  4.6795  2.9271
   90PVA     C415141   0.861   1.699   3.921 -0.3500 -1.0856  0.1212
   90PVA     H715142   0.781   1.737   3.986 -1.8803  1.4172 -2.9547
   90PVA     H815143   0.861   1.773   3.840  0.1632  1.0345  1.9477
   90PVA     C515144   0.855   1.551   3.878  0.6058  0.1977  1.6877
   90PVA     H915145   0.946   1.507   3.834  0.9467 -0.4165  2.9680
   90PVA     O215146   0.855   1.461   3.982  0.3268 -0.3736  0.3805
   90PVA    H1015147   0.949   1.451   4.003 -0.3546 -0.5942  4.1761
   90PVA     C615148   0.744   1.496   3.772  0.2027 -0.5025 -0.3325
   90PVA    H1115149   0.646   1.521   3.814  0.6697  0.6294  0.1485
   90PVA    H1215150   0.747   1.552   3.678  0.8096 -2.3434 -1.4529
   90PVA     C715151   0.786   1.349   3.730  0.8720  0.0473  0.4329
   90PVA    H1315152   0.820   1.293   3.817  3.9353  1.3468  0.1758
   90PVA    H1415153   0.864   1.341   3.654 -1.0293  0.4000 -1.6790
   90PVA     C815154   0.657   1.279   3.674 -0.4975 -0.3012 -0.4876
   90PVA    H1515155   0.671   1.199   3.600 -3.8568  0.1662 -1.8163
   90PVA     O315156   0.569   1.369   3.597 -0.6441  0.1168  0.6842
   90PVA    H1615157   0.529   1.437   3.654 -2.0940  2.0630 -2.4202
   90PVA     C915158   0.554   1.232   3.781 -0.3136 -0.6561 -0.9272
   90PVA    H1715159   0.622   1.238   3.867  1.4061  0.6670 -2.3010
   90PVA    H1815160   0.461   1.285   3.804 -0.5898 -1.0836 -1.0631
   90PVA    C1015161   0.521   1.081   3.771 -0.1533  1.4260 -0.4169
   90PVA    H1915162   0.611   1.024   3.743 -0.7511  0.1087  0.2484
   90PVA    H2015163   0.452   1.068   3.687 -2.3989  5.5448  0.5261
   90PVA    C1115164   0.467   1.015   3.900 -0.0629  1.3784 -0.4670
   90PVA    H2115165   0.556   1.003   3.963  0.6922  0.4164 -1.6760
   90PVA     O415166   0.416   0.887   3.872 -0.0236  0.4288  1.0429
   90PVA    H2215167   0.498   0.837   3.886  0.1541  0.6042  0.6348
   90PVA    C1215168   0.373   1.096   3.990  0.7570 -0.6280  0.4838
   90PVA    H2315169   0.292   1.145   3.933 -2.5208 -2.8001  2.8961
   90PVA    H2415170   0.320   1.020   4.048  1.0744 -1.6697 -0.5557
   90PVA    C1315171   0.435   1.210   4.091  0.3776  0.2553 -0.3476
   90PVA    H2515172   0.367   1.295   4.105  4.7220  3.8150  1.6868
   90PVA    H2615173   0.524   1.255   4.046  0.7681  2.4025  2.3317
   90PVA    C1415174   0.473   1.135   4.218  0.3790 -0.6212  1.0854
   90PVA    H2715175   0.517   1.036   4.200  2.6522  0.1251  2.1221
   90PVA     O515176   0.351   1.127   4.302 -0.6170 -0.4651  0.4147
   90PVA    H2815177   0.284   1.085   4.245  0.8961 -0.5440 -1.4060
   90PVA    C1515178   0.582   1.201   4.308  1.0784 -1.0245  1.0492
   90PVA    H2915179   0.590   1.148   4.404  0.0145 -3.5847 -0.1813
   90PVA    H3015180   0.560   1.306   4.328  1.8088 -0.8773  1.1201
   90PVA    C1615181   0.724   1.207   4.231 -0.1601 -0.3098 -0.3299
   90PVA    H3115182   0.738   1.124   4.160 -3.5802  1.4573 -3.4254
   90PVA    H3215183   0.729   1.302   4.177  1.4488 -0.9550 -1.3849
   90PVA    C1715184   0.847   1.206   4.322 -0.6395  1.0085 -0.2386
   90PVA    H3315185   0.844   1.295   4.386  2.6066  3.4859 -3.1894
   90PVA     O615186   0.850   1.094   4.414 -0.2348  0.2670 -0.8008
   90PVA    H3415187   0.925   1.033   4.398  1.0799  1.3300  1.0106
   90PVA    C1815188   0.984   1.222   4.241 -0.8165 -0.8011 -0.3737
   90PVA    H3515189   1.000   1.129   4.185  0.4304 -0.3268 -0.8484
   90PVA    H3615190   0.984   1.286   4.152 -0.2681 -0.6599 -0.2732
   90PVA    C1915191   1.110   1.243   4.337 -0.0442  1.2278  0.8182
   90PVA    H3715192   1.063   1.288   4.426 -4.0300  0.8889 -0.9019
   90PVA    H3815193   1.119   1.139   4.369 -1.7478  0.2533 -1.6596
   90PVA    C2015194   1.242   1.300   4.289  0.3716 -0.4377 -0.0568
   90PVA    H3915195   1.219   1.360   4.201 -1.9745  3.7468  3.0391
   90PVA     O715196   1.269   1.408   4.384 -0.1970 -0.4311 -0.0477
   90PVA    H4015197   1.279   1.378   4.476  1.9844  1.4488  0.4400
   90PVA    C2115198   1.347   1.202   4.240  0.7496 -0.3373 -0.6876
   90PVA    H4115199   1.312   1.130   4.166  1.4777 -0.5350 -0.8497
   90PVA    H4215200   1.379   1.145   4.328  0.6075  1.7582  0.8039
   90PVA    C2215201   1.482   1.272   4.195 -0.1894  0.6446  0.4820
   90PVA    H4315202   1.441   1.349   4.128  0.5713 -1.6742 -2.8838
   90PVA    H4415203   1.519   1.330   4.280 -1.9285  0.6856  1.2662
   90PVA    C2315204   1.589   1.177   4.147 -1.0131 -0.0644 -0.5454
   90PVA    H4515205   1.554   1.106   4.071 -2.0767  0.9647 -1.0499
   90PVA     O815206   1.628   1.086   4.248 -0.5088  0.7852 -0.3329
   90PVA    H4615207   1.660   1.135   4.326  2.5703 -2.6974  0.9293
   90PVA    C2415208   1.712   1.256   4.082 -0.3911 -0.1286 -0.5360
   90PVA    H4715209   1.733   1.334   4.156  1.2743  1.6531 -2.7584
   90PVA    H4815210   1.686   1.312   3.991  0.4376  0.3414 -0.4908
   90PVA    C2515211   1.840   1.177   4.056  1.0012 -0.0801  0.5043
   90PVA    H4915212   1.825   1.084   4.000  3.9431 -0.8230  0.7973
   90PVA    H5015213   1.855   1.145   4.160  1.1677  1.3461  0.9411
   90PVA    C2615214   1.967   1.255   4.020  0.0838 -0.6643  0.1985
   90PVA    H5115215   1.971   1.349   4.076  4.1654  0.4105 -1.5050
   90PVA     O915216   1.981   1.274   3.882 -1.0227  0.1610 -0.1755
   90PVA    H5215217   2.073   1.301   3.864  0.4849 -3.4063  1.0868
   90PVA    C2715218   2.094   1.185   4.069  0.3139  0.0924 -0.9240
   90PVA    H5315219   2.100   1.088   4.019 -0.6844 -1.0705  1.1215
   90PVA    H5415220   2.074   1.189   4.177 -1.2744 -2.9653 -1.0264
   90PVA    C2815221   2.223   1.260   4.027  0.2450 -0.5817  0.1279
   90PVA    H5515222   2.241   1.246   3.919 -0.7766  4.7137 -1.0030
   90PVA    H5615223   2.198   1.367   4.020  1.9416 -0.2051 -0.7829
   90PVA    C2915224   2.355   1.209   4.112  0.1682  0.3799  1.3663
   90PVA    H5715225   2.435   1.284   4.111 -0.2349  0.9725 -2.9525
   90PVA    O1015226   2.333   1.189   4.257 -0.5735  0.2235  0.4413
   90PVA    H5815227   2.321   1.276   4.300 -0.5345 -0.6802  2.3756
   90PVA    C3015228   2.420   1.085   4.041 -0.5971  2.4737 -0.6000
   90PVA    H5915229   2.349   1.002   4.048 -1.2645  3.0066 -0.8947
   90PVA    H6015230   2.431   1.132   3.943  2.5105  3.2196 -0.0115
   90PVA    C3115231   2.563   1.041   4.077  1.3084  0.1622  0.2941
   90PVA    H6115232   2.545   0.956   4.143  1.0586  0.5601  0.7419
   90PVA    H6215233   2.615   1.123   4.127  0.4582 -0.7499  2.8023
   90PVA    C3215234   2.647   0.979   3.953 -0.4045  0.0257 -0.6734
   90PVA    H6315235   2.580   0.913   3.896 -0.0725  0.5221 -1.6561
   90PVA    O1115236   2.696   1.082   3.876 -0.4789 -0.6788 -0.6605
   90PVA    H6415237   2.738   1.032   3.804  2.3379  3.5156 -2.2642
   90PVA    C3315238   2.765   0.886   3.993  0.2393 -0.0946 -0.5787
   90PVA    H6515239   2.749   0.827   4.083  0.3341 -0.7567 -0.9917
   90PVA    H6615240   2.855   0.948   4.007 -0.1639  0.0562  1.6857
   90PVA    C3415241   2.822   0.787   3.886  0.9363  0.3022  0.1362
   90PVA    H6715242   2.746   0.715   3.853  1.1325 -1.0443  2.3949
   90PVA    H6815243   2.850   0.853   3.803 -1.0149  2.0214  0.7768
   90PVA    C3515244   2.936   0.701   3.943  1.0616  0.6019  0.0522
   90PVA    H6915245   2.892   0.639   4.023  3.6602 -2.8374 -0.9253
   90PVA    O1215246   3.046   0.767   3.999  0.5343  0.1992 -0.8000
   90PVA    H7015247   3.031   0.788   4.093  0.3728  0.3668 -0.8630
   90PVA    C3615248   2.987   0.611   3.833  1.4685  1.7957 -0.1440
   90PVA    H7115249   2.975   0.665   3.738  2.5161  3.9755  0.8931
   90PVA    H7215250   3.095   0.603   3.845  1.4147  4.2254  3.5046
   90PVA    C3715251   2.923   0.466   3.818 -1.5106 -0.4638 -0.0410
   90PVA    H7315252   2.946   0.425   3.719 -1.8443 -0.6300 -0.0512
   90PVA    H7415253   2.814   0.475   3.816 -1.9864 -4.4027  0.3325
   90PVA    C3815254   2.966   0.364   3.920  0.6957  0.6972 -0.3311
   90PVA    H7515255   2.882   0.344   3.988 -2.0245 -3.2625 -4.2633
   90PVA    O1315256   3.085   0.394   3.977  1.0446 -1.0711  0.2390
   90PVA    H7615257   3.138   0.433   3.905 -2.6832  4.0754 -0.2530
   90PVA    C3915258   2.964   0.212   3.867 -0.6697  1.1189 -0.8967
   90PVA    H7715259   3.027   0.206   3.778  2.0891  1.6309  0.9034
   90PVA    H7815260   2.857   0.202   3.845 -0.7570  2.5951 -1.2217
   90PVA    C4015261   3.005   0.080   3.958 -0.0104 -0.4292 -0.5877
   90PVA    H7915262   3.085   0.013   3.925  0.0810 -1.4362  1.5125
   90PVA    H8015263   3.036   0.104   4.060 -1.6583 -1.6626  0.2531
   90PVA    C4115264   2.882   7.659   3.980  0.4326  0.0070 -0.2542
   90PVA    H8115265   2.796   0.041   3.966  0.9509  1.4702  2.7595
   90PVA    O1415266   2.854   7.619   4.109  0.1544 -0.0646 -0.6305
   90PVA    H8215267   2.930   7.573   4.150  0.4134  0.4915 -0.4838
   90PVA    C4215268   2.878   7.531   3.877 -0.1600  0.4247 -0.3837
   90PVA    H8315269   2.880   7.564   3.772  1.0563  3.8595  0.5724
   90PVA    H8415270   2.975   7.482   3.891 -1.2425 -2.3971 -1.9957
   90PVA    C4315271   2.752   7.446   3.889 -1.4281  1.5326 -0.3405
   90PVA    H8515272   2.677   7.513   3.932  0.6321  2.2025  2.4800
   90PVA    H8615273   2.762   7.373   3.971 -1.4663 -0.3169 -1.9065
   90PVA    C4415274   2.693   7.343   3.776 -0.4208 -0.8397  0.4110
   90PVA    H8715275   2.759   7.257   3.784  3.2012  1.8135  1.8737
   90PVA    O1515276   2.573   7.297   3.822 -1.1636 -1.1444 -0.8539
   90PVA    H8815277   2.573   7.200   3.833 -3.0835 -1.2527 -1.4538
   90PVA    C4515278   2.682   7.392   3.628 -0.2279 -0.3695  0.3195
   90PVA    H8915279   2.781   7.405   3.582 -0.0329  1.2035  1.0910
   90PVA    H9015280   2.651   7.497   3.623 -0.7132 -0.5705 -2.8967
   90PVA    C4615281   2.576   7.333   3.530  0.1437  0.4345 -0.5549
   90PVA    H9115282   2.604   7.230   3.502  2.8449  0.9510 -0.1038
   90PVA    H9215283   2.472   7.348   3.559  0.2304 -2.0971  1.3500
   90PVA    C4715284   2.574   7.415   3.407  0.1761 -0.3706 -0.0377
   90PVA    H9315285   2.583   7.521   3.433  0.8424  0.3958 -3.0749
   90PVA    O1615286   2.665   7.356   3.317 -0.2921 -0.6844  1.4296
   90PVA    H9415287   2.620   7.374   3.233  1.3112  3.5718  1.2162
   90PVA    C4815288   2.433   7.412   3.332  0.7966  0.5679  0.0610
   90PVA    H9515289   2.424   7.333   3.256 -0.1595  0.6238  0.1038
   90PVA    H9615290   2.347   7.398   3.397 -2.4431  3.0744 -3.2642
   90PVA    C4915291   2.402   7.556   3.275  0.8041 -0.3995 -0.5648
   90PVA    H9715292   2.364   7.621   3.355  3.9650  0.2023  0.5939
   90PVA    H9815293   2.320   7.535   3.205  0.7083 -4.1448  0.4350
   90PVA    C5015294   2.489   7.645   3.176  0.8102 -0.2078 -0.4066
   90PVA    H9915295   2.580   7.678   3.227  1.1139  1.3819 -1.8637
   90PVA    O1715296   2.539   7.576   3.065 -0.2368 -0.2193  0.1940
   90PVA   H10015297   2.469   7.520   3.027  0.2947 -1.9023  1.6152
   90PVA    C5115298   2.418   0.093   3.125  0.3293  0.6980 -0.1618
   90PVA   H10115299   2.361   0.113   3.216  1.8915 -1.7021  1.4681
   90PVA   H10215300   2.344   0.052   3.055  1.4479  3.2608 -3.0630
   91PVA     C115301   1.233   1.738   4.375 -0.8045  0.3411  0.2648
   91PVA     H115302   1.212   1.709   4.272  1.2298  2.9351 -0.9944
   91PVA     H215303   1.323   1.697   4.422 -0.6502  2.5522  2.0736
   91PVA     C215304   1.116   1.691   4.465  0.2151 -0.0566  0.3775
   91PVA     H315305   1.072   1.789   4.488 -0.6042  0.3402 -2.4722
   91PVA     O115306   1.157   1.626   4.579  0.2808 -0.5222 -0.0864
   91PVA     H415307   1.069   1.631   4.621 -1.1457 -0.8136 -2.8384
   91PVA     C315308   1.011   1.597   4.391  0.4017 -0.1253 -0.0727
   91PVA     H515309   0.972   1.508   4.442 -3.1902  1.6341  0.6076
   91PVA     H615310   1.057   1.543   4.308  0.8703 -0.9617  0.7059
   91PVA     C415311   0.892   1.674   4.334  0.4554  0.1773  0.7240
   91PVA     H715312   0.844   1.734   4.413  1.8087  1.5769  0.5321
   91PVA     H815313   0.927   1.751   4.264  1.0048  3.1088  3.9134
   91PVA     C515314   0.781   1.575   4.289  0.7932 -0.5436 -0.3703
   91PVA     H915315   0.816   1.506   4.211 -1.5563 -2.4479  0.1394
   91PVA     O215316   0.744   1.506   4.398  0.1250  0.5928 -0.4527
   91PVA    H1015317   0.675   1.556   4.444 -1.3965 -1.7032 -0.0777
   91PVA     C615318   0.656   1.658   4.228  0.1822  0.8472  0.0737
   91PVA    H1115319   0.582   1.682   4.305  0.0823  1.6411 -0.2530
   91PVA    H1215320   0.699   1.751   4.188  3.0345 -1.2399 -2.1385
   91PVA     C715321   0.588   1.565   4.119  0.4163 -0.2961  0.1280
   91PVA    H1315322   0.553   1.480   4.179  0.1552 -2.7530 -3.2440
   91PVA    H1415323   0.661   1.526   4.048  1.2026 -0.3124  0.9255
   91PVA     C815324   0.484   1.634   4.030  0.7071 -0.8086  0.1576
   91PVA    H1515325   0.416   1.681   4.102  2.7159  0.0383  1.6061
   91PVA     O315326   0.542   1.742   3.959 -0.2128  0.2537  0.9226
   91PVA    H1615327   0.523   1.708   3.870 -1.6090  2.6437  0.2235
   91PVA     C915328   0.370   1.557   3.946 -1.2520  0.2664  0.7492
   91PVA    H1715329   0.299   1.522   4.022 -2.1454  2.3371  0.9232
   91PVA    H1815330   0.409   1.466   3.897  0.3525  0.2612  1.9514
   91PVA    C1015331   0.286   1.644   3.843  1.1180  0.7549 -1.1064
   91PVA    H1915332   0.189   1.600   3.818  1.6138 -1.4464  0.5538
   91PVA    H2015333   0.263   1.736   3.899  3.8813  1.7293 -1.4442
   91PVA    C1115334   0.344   1.694   3.715 -0.3760 -0.4554  0.2632
   91PVA    H2115335   0.281   1.669   3.628  3.3301  5.0338 -4.7933
   91PVA     O415336   0.458   1.619   3.682 -0.3612 -0.4290  1.2893
   91PVA    H2215337   0.476   1.638   3.588  1.1524 -0.6361  1.5100
   91PVA    C1215338   0.350   1.847   3.688 -1.0938  1.1953  0.7721
   91PVA    H2315339   0.255   1.885   3.728 -0.6385  1.9929  1.1231
   91PVA    H2415340   0.438   1.877   3.746  1.3001 -0.7469 -1.5736
   91PVA    C1315341   0.365   1.898   3.544  0.4013  0.7319  0.5885
   91PVA    H2515342   0.287   1.863   3.476  0.3318  2.4339 -0.2311
   91PVA    H2615343   0.458   1.852   3.509  1.2979  0.8847  2.6239
   91PVA    C1415344   0.364   2.057   3.545  0.5613  0.6082 -1.0796
   91PVA    H2715345   0.441   2.091   3.616  1.0696  1.5496 -2.0615
   91PVA     O515346   0.232   2.106   3.555 -0.0310  0.5151 -0.6294
   91PVA    H2815347   0.183   2.076   3.477 -1.6808  1.5462 -0.0521
   91PVA    C1515348   0.413   2.116   3.408 -0.0935 -0.3157  0.5359
   91PVA    H2915349   0.517   2.086   3.393 -1.0307 -2.4886 -2.9779
   91PVA    H3015350   0.423   2.225   3.414 -2.9205  0.2031 -1.6664
   91PVA    C1615351   0.333   2.089   3.276 -0.2327  0.0953  0.3939
   91PVA    H3115352   0.292   1.990   3.256  1.1600 -0.2380 -0.9779
   91PVA    H3215353   0.242   2.151   3.277  1.6877  3.1305  0.8105
   91PVA    C1715354   0.400   2.127   3.133 -0.4391 -0.3781 -0.5827
   91PVA    H3315355   0.464   2.043   3.101  1.7205  1.3553 -1.0456
   91PVA     O615356   0.485   2.240   3.141 -0.1847 -0.3482 -0.4578
   91PVA    H3415357   0.530   2.267   3.059 -1.1935  0.8813 -0.6269
   91PVA    C1815358   0.312   2.162   3.025 -0.3682 -0.1192  0.9743
   91PVA    H3515359   0.306   2.270   3.005 -2.5353 -0.6889 -2.1532
   91PVA    H3615360   0.215   2.117   3.049  0.8271 -3.3953  0.1565
   91PVA    C1915361   0.322   2.099   2.885  0.2762 -0.2374 -0.2528
   91PVA    H3715362   0.289   1.996   2.868 -2.2038  0.2502  1.2130
   91PVA    H3815363   0.426   2.073   2.860  1.1634  2.3720  0.4016
   91PVA    C2015364   0.269   2.181   2.765 -0.1770  0.2642  0.7581
   91PVA    H3915365   0.202   2.254   2.813 -2.9031 -0.4120 -1.7504
   91PVA     O715366   0.373   2.250   2.700 -0.4986  0.4005  1.0622
   91PVA    H4015367   0.449   2.277   2.755  0.2534 -1.7057  1.1721
   91PVA    C2115368   0.170   2.104   2.669 -0.2391 -0.3031  0.2258
   91PVA    H4115369   0.079   2.070   2.721 -1.3814  0.0732 -1.4323
   91PVA    H4215370   0.224   2.017   2.630  0.2980  0.3929 -0.6071
   91PVA    C2215371   0.104   2.180   2.545  0.7296 -0.5173 -0.7672
   91PVA    H4315372   0.066   2.278   2.576 -0.8186 -1.6291  1.0444
   91PVA    H4415373   0.195   2.204   2.488  1.9911  0.5651  1.5525
   91PVA    C2315374   7.754   2.102   2.472 -0.3479 -0.6328 -0.2127
   91PVA    H4515375   7.656   2.109   2.520 -1.6205  2.1328 -2.8947
   91PVA     O815376   0.015   1.963   2.487  0.8671 -1.7146 -0.4051
   91PVA    H4615377   0.090   1.961   2.549  1.0185 -0.2201 -0.5061
   91PVA    C2415378   7.728   2.153   2.328 -0.0538 -0.0307 -0.5830
   91PVA    H4715379   7.640   2.104   2.284  0.4808 -0.6476 -0.9574
   91PVA    H4815380   7.705   2.260   2.342 -0.4839 -0.3601  1.7594
   91PVA    C2515381   0.086   2.127   2.233 -0.6552 -0.0172  0.4619
   91PVA    H4915382   0.102   2.019   2.245 -2.9681 -0.4921 -0.2998
   91PVA    H5015383   0.166   2.180   2.286 -0.6845  1.1751 -0.6272
   91PVA    C2615384   0.064   2.149   2.077 -1.8067  0.2885  0.4001
   91PVA    H5115385   0.020   2.057   2.037 -2.5677  0.1101  1.5896
   91PVA     O915386   7.733   2.251   2.071  0.2200  0.6887 -0.1157
   91PVA    H5215387   7.646   2.209   2.071  1.9209 -3.4250 -1.3133
   91PVA    C2715388   0.193   2.173   2.001  0.0070  0.1993  0.2556
   91PVA    H5315389   0.220   2.278   2.018 -3.0543  0.8583  1.7243
   91PVA    H5415390   0.142   2.155   1.906 -3.3147  1.1042  1.7201
   91PVA    C2815391   0.306   2.067   2.059  0.5801 -1.1417  0.4932
   91PVA    H5515392   0.352   2.091   2.156  1.0054 -2.1245  0.5500
   91PVA    H5615393   0.250   1.974   2.074 -1.8830  0.5479  2.5502
   91PVA    C2915394   0.419   2.067   1.955 -0.8712 -0.0417  0.3989
   91PVA    H5715395   0.490   1.998   2.002  2.9599  4.1065  1.4275
   91PVA    O1015396   0.496   2.186   1.956 -0.0830  0.6554 -0.7913
   91PVA    H5815397   0.498   2.222   2.046 -0.3449  2.6359 -1.5281
   91PVA    C3015398   0.378   2.027   1.814 -0.7628  0.2009 -1.2714
   91PVA    H5915399   0.326   1.931   1.804 -4.1049  1.1603  3.4689
   91PVA    H6015400   0.312   2.105   1.774 -2.2546  1.8091  3.5318
   91PVA    C3115401   0.508   2.006   1.731  0.0111 -0.5439 -0.6048
   91PVA    H6115402   0.576   2.092   1.735 -0.8178  0.1815 -1.5936
   91PVA    H6215403   0.475   2.002   1.627 -2.2214  0.4313  0.0167
   91PVA    C3215404   0.583   1.872   1.755  0.5382  0.2273 -0.2273
   91PVA    H6315405   0.689   1.890   1.775 -0.0345  1.1029  2.3215
   91PVA    O1115406   0.524   1.794   1.861 -1.0722  0.2206  0.4749
   91PVA    H6415407   0.583   1.807   1.936 -0.3923  5.1364 -0.5603
   91PVA    C3315408   0.573   1.769   1.636  1.2566 -0.0268 -0.6226
   91PVA    H6515409   0.562   1.818   1.538 -1.7340 -3.2120 -2.1232
   91PVA    H6615410   0.492   1.697   1.656  0.7853 -0.6886 -4.2183
   91PVA    C3415411   0.708   1.687   1.625  0.1210  1.1840 -0.2138
   91PVA    H6715412   0.785   1.765   1.614  0.5236  1.1531  1.9192
   91PVA    H6815413   0.731   1.632   1.718 -5.0221 -2.2746 -0.5940
   91PVA    C3515414   0.711   1.587   1.493 -0.8493 -0.3300  0.0322
   91PVA    H6915415   0.626   1.519   1.503 -4.7382  4.3144  2.8767
   91PVA    O1215416   0.690   1.662   1.375  0.0743 -0.1536  0.6164
   91PVA    H7015417   0.640   1.613   1.307 -3.6229  0.9987  2.2519
   91PVA    C3615418   0.842   1.514   1.460  0.1435 -0.1585 -0.2547
   91PVA    H7115419   0.877   1.523   1.356  2.4121  1.7994  0.5960
   91PVA    H7215420   0.928   1.557   1.512  0.4544  0.1981 -1.0487
   91PVA    C3715421   0.843   1.359   1.464  0.2333 -0.0660 -0.8104
   91PVA    H7315422   0.818   1.323   1.565 -1.3670 -2.6591 -2.0415
   91PVA    H7415423   0.943   1.317   1.447  0.2010 -2.4544  3.4749
   91PVA    C3815424   0.756   1.277   1.368 -0.1084 -0.1907 -1.2394
   91PVA    H7515425   0.656   1.315   1.392 -0.5951  0.8248 -4.4077
   91PVA    O1315426   0.817   1.324   1.246  0.6964  1.0129 -0.0092
   91PVA    H7615427   0.869   1.400   1.277 -0.0075  0.3245  3.2030
   91PVA    C3915428   0.771   1.127   1.401  0.2310  0.6453 -0.6646
   91PVA    H7715429   0.729   1.111   1.501 -0.5005  2.4578 -0.6510
   91PVA    H7815430   0.873   1.093   1.422 -0.4527 -0.7838  0.5242
   91PVA    C4015431   0.699   1.023   1.308 -0.6337  0.7386 -0.4990
   91PVA    H7915432   0.594   1.027   1.339  0.0972  0.6414  2.1788
   91PVA    H8015433   0.712   1.064   1.207  0.7275 -2.3924 -1.7193
   91PVA    C4115434   0.754   0.879   1.302 -0.4425  1.1743 -1.0627
   91PVA    H8115435   0.753   0.822   1.396 -3.8822  1.5538 -0.7601
   91PVA    O1415436   0.881   0.885   1.234  0.2350  0.2587  0.2628
   91PVA    H8215437   0.869   0.843   1.147 -0.6503  2.9539 -1.0435
   91PVA    C4215438   0.674   0.775   1.215 -0.5289  0.3056  0.4507
   91PVA    H8315439   0.575   0.751   1.257  0.2921 -1.8092  1.3050
   91PVA    H8415440   0.665   0.813   1.112  0.7816  3.0328  1.2583
   91PVA    C4315441   0.753   0.635   1.197 -0.3693 -0.3062 -1.2442
   91PVA    H8515442   0.785   0.588   1.291  0.6229 -1.2291 -2.0049
   91PVA    H8615443   0.847   0.648   1.143 -2.1195  1.6913 -4.0460
   91PVA    C4415444   0.701   0.513   1.125 -0.4666  0.4947 -0.5816
   91PVA    H8715445   0.646   0.463   1.205  0.1726 -1.8466 -1.5358
   91PVA    O1515446   0.628   0.570   1.021  0.9474 -0.3864  0.4212
   91PVA    H8815447   0.536   0.571   1.053  0.5507 -2.7978 -0.4725
   91PVA    C4515448   0.790   0.399   1.085  0.3587 -0.3660 -0.2488
   91PVA    H8915449   0.870   0.382   1.157  1.4248 -0.9560 -1.5306
   91PVA    H9015450   0.843   0.434   0.995  4.2734  2.2243  2.7663
   91PVA    C4615451   0.707   0.271   1.027  0.2783 -0.7958 -0.4214
   91PVA    H9115452   0.601   0.287   1.053  0.3873  0.2259 -0.6029
   91PVA    H9215453   0.693   0.262   0.918 -1.0273  2.2963 -0.6110
   91PVA    C4715454   0.766   0.140   1.098  1.2891 -0.3305  0.0021
   91PVA    H9315455   0.772   0.177   1.201  3.8891  2.3310 -0.9910
   91PVA    O1615456   0.901   0.119   1.067 -0.9240  0.0367  1.0339
   91PVA    H9415457   0.930   0.052   1.132  1.7651 -2.9205 -2.7552
   91PVA    C4815458   0.668   0.014   1.097  0.0851 -1.9503  0.3950
   91PVA    H9515459   0.596   0.025   1.179  1.2704  1.5176  1.1630
   91PVA    H9615460   0.607   0.021   1.006  1.4505  0.7473 -0.4494
   91PVA    C4915461   0.731   7.553   1.106  0.2169 -0.6505 -0.0955
   91PVA    H9715462   0.778   7.540   1.204 -0.6981  3.4771  1.0789
   91PVA    H9815463   0.818   7.558   1.040  1.4258 -5.1473  0.8053
   91PVA    C5015464   0.644   7.426   1.062  0.4844  1.1818  1.0701
   91PVA    H9915465   0.600   7.449   0.964  1.7061 -5.3068 -1.5743
   91PVA    O1715466   0.749   7.317   1.046  0.5243 -0.2887  0.0017
   91PVA   H10015467   0.697   7.235   1.048  0.5179 -0.3213  2.7641
   91PVA    C5115468   0.519   7.378   1.159 -0.1652  0.1614 -0.2840
   91PVA   H10115469   0.512   7.269   1.167 -2.9424  0.3302  0.7388
   91PVA   H10215470   0.550   7.404   1.261  0.1956  0.9468 -0.5833
   92PVA     C115471   1.774   0.773   3.526 -0.1996 -0.0865  0.1424
   92PVA     H115472   1.769   0.665   3.509 -5.0869  0.1877 -1.7312
   92PVA     H215473   1.736   0.799   3.625 -1.0017  3.2438 -0.9115
   92PVA     C215474   1.680   0.850   3.427 -0.5126 -1.0847 -0.3205
   92PVA     H315475   1.739   0.887   3.342  0.0167  3.9849  1.9095
   92PVA     O115476   1.592   0.766   3.379  1.2518 -0.1008  0.9234
   92PVA     H415477   1.595   0.794   3.286  1.0353 -2.4009  0.1622
   92PVA     C315478   1.606   0.981   3.478 -0.1528  1.6406  0.9429
   92PVA     H515479   1.672   1.056   3.522 -1.9714  1.5484  4.1284
   92PVA     H615480   1.520   0.961   3.542  0.4844  1.1316  1.6636
   92PVA     C415481   1.523   1.044   3.357 -0.0815  0.0427  0.0837
   92PVA     H715482   1.459   0.961   3.326 -1.5638  0.5383  1.6292
   92PVA     H815483   1.594   1.065   3.275 -0.0468  0.5933  0.2522
   92PVA     C515484   1.443   1.179   3.376  0.2299  0.9834 -0.8448
   92PVA     H915485   1.513   1.248   3.425  2.7608  1.0118 -4.1694
   92PVA     O215486   1.327   1.149   3.454 -0.3845 -0.2743  0.3087
   92PVA    H1015487   1.263   1.144   3.381  0.9380 -1.8925 -0.8357
   92PVA     C615488   1.403   1.265   3.245 -0.0190 -0.2533 -0.4681
   92PVA    H1115489   1.496   1.314   3.216  0.9135 -1.7875 -0.1579
   92PVA    H1215490   1.375   1.199   3.161 -2.3012 -0.7423  0.5910
   92PVA     C715491   1.310   1.388   3.268 -1.2154  0.4494 -0.4326
   92PVA    H1315492   1.342   1.431   3.364  1.9257  0.8887 -1.5708
   92PVA    H1415493   1.208   1.350   3.284 -0.7884 -1.1745 -1.3959
   92PVA     C815494   1.296   1.494   3.166  0.7238 -1.1001 -0.2535
   92PVA    H1515495   1.400   1.531   3.162  1.5528 -2.9616  1.8048
   92PVA     O315496   1.278   1.429   3.049 -0.5121 -0.0677  0.3309
   92PVA    H1615497   1.207   1.367   3.071 -0.8853  0.9596  2.2064
   92PVA     C915498   1.181   1.606   3.194 -0.0713  0.2000  0.8001
   92PVA    H1715499   1.211   1.645   3.292  0.5445 -3.1735  2.0952
   92PVA    H1815500   1.082   1.568   3.223 -1.4365  3.3537  0.6371
   92PVA    C1015501   1.142   1.711   3.083 -0.6558  0.4309  0.0642
   92PVA    H1915502   1.136   1.645   2.996  0.0199  0.6647 -0.1601
   92PVA    H2015503   1.226   1.779   3.069 -1.9655  2.2334  0.4941
   92PVA    C1115504   0.993   1.777   3.092 -1.1717  1.5223 -0.0974
   92PVA    H2115505   0.969   1.822   3.189 -1.4604 -0.5679  0.8418
   92PVA     O415506   0.892   1.675   3.095  0.2903 -1.1031 -0.2232
   92PVA    H2215507   0.821   1.716   3.147  0.6558  0.5321 -0.9647
   92PVA    C1215508   0.970   1.886   2.981 -0.6653 -0.1468 -1.3309
   92PVA    H2315509   1.064   1.941   2.970 -2.1433  2.2066 -3.2819
   92PVA    H2415510   0.934   1.831   2.893 -1.0684 -0.3959 -1.0147
   92PVA    C1315511   0.856   1.988   3.008  0.0724  0.2386  1.2755
   92PVA    H2515512   0.885   2.052   3.093 -1.0527  1.4567  0.7854
   92PVA    H2615513   0.760   1.944   3.035 -0.0852  2.4969  5.1905
   92PVA    C1415514   0.827   2.081   2.891  0.2771 -0.1681  0.5546
   92PVA    H2715515   0.920   2.138   2.903  0.3909 -0.5428  1.5154
   92PVA     O515516   0.818   2.017   2.762 -0.6902 -0.5120  0.1458
   92PVA    H2815517   0.725   2.013   2.731 -0.7245  0.6790  0.0373
   92PVA    C1515518   0.707   2.175   2.919 -0.2086  0.2819 -0.5621
   92PVA    H2915519   0.622   2.106   2.920  0.4122 -0.5154  1.4064
   92PVA    H3015520   0.712   2.225   3.017 -0.4279  3.9410 -2.2574
   92PVA    C1615521   0.695   2.286   2.806  0.6760  0.5586 -0.2398
   92PVA    H3115522   0.619   2.246   2.738  0.7323 -0.2771  0.1853
   92PVA    H3215523   0.785   2.289   2.744  0.2818 -2.4503 -1.1138
   92PVA    C1715524   0.637   2.419   2.839 -1.7436 -0.1672  0.0510
   92PVA    H3315525   0.716   2.484   2.878  2.9839 -1.5054 -5.8383
   92PVA     O615526   0.541   2.397   2.937  1.4543 -0.3891 -0.5612
   92PVA    H3415527   0.556   2.464   3.005  1.4183 -1.2767  0.3323
   92PVA    C1815528   0.564   2.507   2.719 -0.3590 -0.0561  0.6555
   92PVA    H3515529   0.644   2.538   2.650  1.8173  2.5797  3.9846
   92PVA    H3615530   0.486   2.455   2.663 -1.7913 -0.5468  2.9931
   92PVA    C1915531   0.486   2.636   2.748  0.7305 -0.8260  0.3217
   92PVA    H3715532   0.549   2.721   2.776 -1.8985  1.2635  0.2914
   92PVA    H3815533   0.413   2.612   2.826  0.2011  0.0724  0.1142
   92PVA    C2015534   0.401   2.677   2.631  0.3947 -1.6750  0.3619
   92PVA    H3915535   0.452   2.649   2.538 -3.0587  0.5671 -2.5106
   92PVA     O715536   0.274   2.612   2.633  0.3844  0.0797  0.3086
   92PVA    H4015537   0.239   2.581   2.719  1.3680  0.1734  0.7521
   92PVA    C2115538   0.369   2.832   2.606  0.0019  0.7734  0.9538
   92PVA    H4115539   0.279   2.871   2.654 -1.3955 -2.7019  1.4812
   92PVA    H4215540   0.457   2.897   2.618  0.3635  0.7053 -0.9192
   92PVA    C2215541   0.325   2.850   2.449  0.6334  0.1484  0.4750
   92PVA    H4315542   0.409   2.817   2.386  1.2521  1.7033  0.4359
   92PVA    H4415543   0.242   2.782   2.426  1.7719 -0.5608 -1.8127
   92PVA    C2315544   0.283   2.984   2.372 -1.4350 -1.1915  0.6779
   92PVA    H4515545   0.179   3.015   2.386 -0.4212  2.4658  1.2017
   92PVA     O815546   0.378   3.092   2.395 -0.3766  0.3389 -0.4849
   92PVA    H4615547   0.353   3.129   2.482  0.6336 -1.4935  0.6280
   92PVA    C2415548   0.280   2.963   2.220 -0.4018  0.0470 -0.6732
   92PVA    H4715549   0.384   2.947   2.191  0.3652  4.0409 -0.6534
   92PVA    H4815550   0.245   3.057   2.173  1.1201  1.5772  1.1287
   92PVA    C2515551   0.179   2.856   2.160  0.1543  0.0452 -0.4084
   92PVA    H4915552   0.199   2.757   2.203  0.8347 -0.2763 -1.4243
   92PVA    H5015553   0.076   2.888   2.182 -0.1659  0.0009 -1.7898
   92PVA    C2615554   0.174   2.840   2.009  0.7687 -0.4093  1.1320
   92PVA    H5115555   0.168   2.939   1.961 -0.8629  3.4151  7.8285
   92PVA     O915556   0.302   2.779   1.964  0.5440  0.9668 -0.9231
   92PVA    H5215557   0.316   2.701   2.022  0.8016  0.7373 -1.2873
   92PVA    C2715558   0.054   2.746   1.958 -0.9527 -1.2142  0.2491
   92PVA    H5315559   7.736   2.808   1.921 -1.4200 -1.3727  1.0089
   92PVA    H5415560   0.009   2.709   2.052  0.0673 -0.3676  1.0955
   92PVA    C2815561   0.092   2.633   1.858  0.5158  0.2487  0.0205
   92PVA    H5515562   0.132   2.674   1.765 -0.3867 -0.6264 -0.7778
   92PVA    H5615563   0.172   2.574   1.904  2.2412  2.4335 -0.0496
   92PVA    C2915564   7.740   2.530   1.819  0.1642  0.9083  1.0654
   92PVA    H5715565   7.670   2.574   1.747 -0.3911 -1.4491  0.0863
   92PVA    O1015566   7.672   2.477   1.934 -0.4355 -1.0080  0.0877
   92PVA    H5815567   7.696   2.388   1.965  3.7243 -1.2424 -3.0162
   92PVA    C3015568   0.037   2.404   1.729 -0.6928 -0.3278 -1.0108
   92PVA    H5915569   0.128   2.446   1.685 -1.6117  0.8162 -1.8609
   92PVA    H6015570   0.074   2.326   1.797 -0.4458  3.5774  3.9253
   92PVA    C3115571   7.718   2.333   1.624 -0.5256  0.0072 -0.0710
   92PVA    H6115572   7.657   2.406   1.569 -5.5228 -4.5355 -1.5045
   92PVA    H6215573   7.639   2.283   1.682 -2.2478  0.6069 -1.7755
   92PVA    C3215574   0.013   2.235   1.518 -0.3369  0.0743  0.1857
   92PVA    H6315575   0.051   2.143   1.563 -0.2520  0.9773  2.0526
   92PVA    O1115576   0.128   2.302   1.466 -0.0124  0.5924  0.2599
   92PVA    H6415577   0.208   2.247   1.474  0.3918  1.3616  1.9380
   92PVA    C3315578   7.684   2.183   1.405  0.6095 -0.9238 -0.1594
   92PVA    H6515579   7.619   2.106   1.447 -1.2066 -0.2768 -1.6477
   92PVA    H6615580   7.612   2.256   1.366 -0.3453 -2.1281 -0.7141
   92PVA    C3415581   7.765   2.132   1.286  1.2423  0.0271  1.1488
   92PVA    H6715582   0.098   2.102   1.326  1.2478 -4.6198 -1.6035
   92PVA    H6815583   0.012   2.217   1.218  1.2417  0.8916  2.2063
   92PVA    C3515584   7.682   2.023   1.198  0.6049  0.1316  0.1260
   92PVA    H6915585   7.655   1.940   1.264  1.6263  0.3564  0.8396
   92PVA    O1215586   7.565   2.089   1.156 -0.1225  0.3390  0.2157
   92PVA    H7015587   7.559   2.089   1.059  0.6427 -2.6621  0.0633
   92PVA    C3615588   7.751   1.955   1.068  0.6370 -0.5677  0.7414
   92PVA    H7115589   7.716   2.030   0.996  3.5007  0.1970  0.0247
   92PVA    H7215590   0.093   1.972   1.053  0.6191 -0.4649  0.7306
   92PVA    C3715591   7.713   1.805   1.017  0.5606  0.4807  0.2146
   92PVA    H7315592   7.739   1.788   0.912  1.0434  0.4933  0.3300
   92PVA    H7415593   7.603   1.796   1.017  0.4814 -1.6269  4.7636
   92PVA    C3815594   0.011   1.679   1.085  0.2966  1.0242  0.5860
   92PVA    H7515595   0.013   1.696   1.193 -2.0719  1.8610  0.5631
   92PVA    O1315596   0.148   1.655   1.025 -0.4401  0.7273  0.1383
   92PVA    H7615597   0.205   1.720   1.069 -0.7677  0.6051  0.7602
   92PVA    C3915598   7.700   1.546   1.039 -0.0015  1.0990  0.5583
   92PVA    H7715599   7.732   1.519   0.937  0.3041  2.1695  0.3574
   92PVA    H7815600   7.593   1.556   1.062 -0.4212 -0.5374 -0.5373
   92PVA    C4015601   7.734   1.420   1.133 -0.4503  0.4006 -0.1543
   92PVA    H7915602   0.077   1.417   1.118  0.2789  2.9539  3.3423
   92PVA    H8015603   7.703   1.447   1.234  0.5309 -1.0411  0.5487
   92PVA    C4115604   7.675   1.281   1.082  1.0298 -0.4177  0.9456
   92PVA    H8115605   7.599   1.244   1.152  2.1037  0.3994  2.6029
   92PVA    O1415606   7.605   1.313   0.957  0.4682 -0.9459 -0.5049
   92PVA    H8215607   7.665   1.306   0.880  0.1158 -1.6494 -0.7250
   92PVA    C4215608   0.000   1.156   1.049 -0.3675  0.7934 -1.1490
   92PVA    H8315609   0.036   1.127   1.148  0.8636  2.4882 -1.0469
   92PVA    H8415610   0.083   1.197   0.991 -1.4109  0.9165 -2.6051
   92PVA    C4315611   7.707   1.018   0.976  0.0379  0.4406 -0.9886
   92PVA    H8515612   7.633   1.059   0.906 -2.2810 -0.6026  0.7329
   92PVA    H8615613   7.634   0.971   1.043  0.3017  1.3281 -0.0517
   92PVA    C4415614   0.043   0.914   0.918 -1.1352  0.2382  0.1679
   92PVA    H8715615   7.755   0.862   0.837  1.3673  2.3995 -3.1406
   92PVA    O1515616   0.161   0.965   0.863  0.2696 -0.4260 -0.6411
   92PVA    H8815617   0.173   0.902   0.790 -1.4684 -1.9542  0.3105
   92PVA    C4515618   0.092   0.794   0.998  1.2831 -0.7047  0.1029
   92PVA    H8915619   7.764   0.755   1.039  3.1848 -2.1237  3.4643
   92PVA    H9015620   0.160   0.830   1.076  1.3556  0.0901 -0.3208
   92PVA    C4615621   0.151   0.680   0.924  0.5352  0.8083  1.3573
   92PVA    H9115622   0.069   0.635   0.867  1.2288  3.2221 -1.8546
   92PVA    H9215623   0.226   0.699   0.846 -2.8690 -1.6007 -3.0095
   92PVA    C4715624   0.207   0.581   1.023  0.0322 -0.8147  0.1850
   92PVA    H9315625   0.305   0.623   1.051  0.4797 -3.0937  2.3734
   92PVA    O1615626   0.116   0.571   1.141  0.2618  0.1164 -0.1177
   92PVA    H9415627   0.050   0.504   1.116  1.1953  0.0922 -2.8414
   92PVA    C4815628   0.229   0.437   0.963 -0.0356 -0.1018  1.1928
   92PVA    H9515629   0.180   0.420   0.866  0.4175 -2.0608  1.2548
   92PVA    H9615630   0.334   0.434   0.933 -1.0096 -1.0248 -2.7428
   92PVA    C4915631   0.187   0.319   1.049 -0.3031 -0.3881  0.8644
   92PVA    H9715632   0.085   0.285   1.030  0.4942 -2.0478 -0.6757
   92PVA    H9815633   0.191   0.334   1.158 -0.6907  1.8300  0.6183
   92PVA    C5015634   0.272   0.197   1.034  0.7224  0.2272  0.0606
   92PVA    H9915635   0.363   0.227   1.087 -0.3158 -0.4442  2.3496
   92PVA    O1715636   0.311   0.166   0.898  0.1182  1.0121 -0.5672
   92PVA   H10015637   0.399   0.205   0.887  0.9891 -0.8256 -0.3290
   92PVA    C5115638   0.208   0.069   1.102  1.5255 -0.0793 -0.1550
   92PVA   H10115639   0.244   0.071   1.205  2.1470 -1.7688 -0.3019
   92PVA   H10215640   0.099   0.082   1.099  1.0866 -3.1732 -1.1669
   93PVA     C115641   2.130   1.145   3.470 -0.0601 -0.2686  0.4801
   93PVA     H115642   2.085   1.177   3.375  1.9714  1.0017 -0.1123
   93PVA     H215643   2.236   1.148   3.442  1.1536 -1.6589  4.2713
   93PVA     C215644   2.091   1.244   3.584  0.0271 -0.4517  0.3854
   93PVA     H315645   1.982   1.235   3.591 -0.8177  3.3750 -3.5104
   93PVA     O115646   2.160   1.216   3.698  0.2734 -0.1715  0.0820
   93PVA     H415647   2.251   1.223   3.666 -0.6883  0.3162 -2.7910
   93PVA     C315648   2.106   1.396   3.555 -0.8871  0.2024 -0.8427
   93PVA     H515649   2.057   1.446   3.639  0.4857 -4.8497  3.4780
   93PVA     H615650   2.208   1.433   3.572 -1.4808  3.5418 -3.3813
   93PVA     C415651   2.058   1.447   3.428  0.5122 -0.2920  0.1850
   93PVA     H715652   1.968   1.404   3.383  0.0678  1.7868 -1.0501
   93PVA     H815653   2.132   1.411   3.355  1.0573 -2.2547  1.6079
   93PVA     C515654   2.054   1.611   3.440 -0.3282  0.0219 -0.5266
   93PVA     H915655   1.972   1.644   3.505  0.5319  0.7291  0.2299
   93PVA     O215656   2.175   1.670   3.504  0.5272  0.6951  0.1493
   93PVA    H1015657   2.149   1.704   3.592  1.4681  3.4078 -0.5303
   93PVA     C615658   2.026   1.672   3.296 -0.0154 -0.7058  0.4834
   93PVA    H1115659   1.936   1.621   3.260 -0.4973 -0.6019  1.5258
   93PVA    H1215660   2.000   1.779   3.294  3.4885  0.3423  2.2640
   93PVA     C715661   2.136   1.668   3.192 -1.1655  1.1039  0.0881
   93PVA    H1315662   2.166   1.563   3.200 -1.7202  0.5815 -3.2439
   93PVA    H1415663   2.226   1.714   3.234 -1.5902 -1.5259  4.5597
   93PVA     C815664   2.101   1.709   3.035 -0.8674  0.2232 -0.5085
   93PVA    H1515665   2.063   1.812   3.036  1.2711  1.1179 -2.4969
   93PVA     O315666   2.024   1.618   2.977 -0.0377 -0.1107 -0.1282
   93PVA    H1615667   1.975   1.563   3.041  0.1396 -2.2627 -1.7063
   93PVA     C915668   2.235   1.716   2.948 -0.3738  1.3449 -0.3455
   93PVA    H1715669   2.263   1.610   2.936  0.3895  1.3125  1.3926
   93PVA    H1815670   2.321   1.719   3.016  1.4042 -3.3744 -1.9579
   93PVA    C1015671   2.245   1.819   2.837  1.7057  0.5466 -0.4031
   93PVA    H1915672   2.156   1.807   2.774  3.1629  3.9747 -3.5275
   93PVA    H2015673   2.228   1.920   2.878  1.1268  0.2015  0.2122
   93PVA    C1115674   2.352   1.821   2.733 -0.3112 -0.2252  0.7369
   93PVA    H2115675   2.317   1.908   2.676 -0.9405 -1.0904 -0.2541
   93PVA     O415676   2.350   1.702   2.654 -0.2403  0.2805  0.5749
   93PVA    H2215677   2.289   1.649   2.708  0.1861  2.6813  3.7078
   93PVA    C1215678   2.502   1.851   2.774  0.3091 -0.4891 -0.3957
   93PVA    H2315679   2.549   1.759   2.811 -1.3252 -1.9779 -1.8581
   93PVA    H2415680   2.552   1.887   2.683 -3.3985  3.9689 -1.0514
   93PVA    C1315681   2.511   1.960   2.879 -0.4474  0.1228  0.4065
   93PVA    H2515682   2.465   1.924   2.972  2.3485  0.7014  2.1105
   93PVA    H2615683   2.443   2.042   2.855 -1.0476 -0.2145  0.9158
   93PVA    C1415684   2.655   2.011   2.893  0.0958  0.6868 -0.2412
   93PVA    H2715685   2.702   2.043   2.799  1.9749  0.1780  0.4810
   93PVA     O515686   2.739   1.906   2.952 -0.6375 -1.3467 -0.6517
   93PVA    H2815687   2.772   1.953   3.030 -2.1799 -2.3846  0.7004
   93PVA    C1515688   2.673   2.140   2.966 -0.4557 -0.8349 -0.0354
   93PVA    H2915689   2.660   2.120   3.073  0.1513  2.0267  0.6696
   93PVA    H3015690   2.594   2.204   2.925  1.2236  1.5707  0.2360
   93PVA    C1615691   2.804   2.221   2.955  0.2080  1.0096 -0.5246
   93PVA    H3115692   2.827   2.231   2.849 -0.4110 -1.1195 -0.8977
   93PVA    H3215693   2.878   2.146   2.986 -1.7985 -2.1226 -2.7275
   93PVA    C1715694   2.823   2.359   3.035  0.8207  0.0236  0.0320
   93PVA    H3315695   2.892   2.423   2.979 -0.4766  0.8116 -0.7390
   93PVA     O615696   2.858   2.345   3.163  0.9481 -0.4217 -0.7996
   93PVA    H3415697   2.878   2.253   3.186  2.2662 -0.1697 -0.8693
   93PVA    C1815698   2.684   2.443   3.041 -0.1341 -0.4171 -0.0120
   93PVA    H3515699   2.603   2.402   2.979  1.6201  0.0671 -2.7765
   93PVA    H3615700   2.651   2.443   3.145 -2.6815 -0.0159 -0.7538
   93PVA    C1915701   2.706   2.593   3.016  0.0585 -0.0807  0.3193
   93PVA    H3715702   2.769   2.612   2.928 -3.2298  1.3246 -1.9488
   93PVA    H3815703   2.771   2.625   3.097 -0.7575 -1.3083  1.4994
   93PVA    C2015704   2.566   2.680   3.002 -0.1163  0.2790  0.7470
   93PVA    H3915705   2.597   2.785   3.005 -2.2351  0.9655  0.5044
   93PVA     O715706   2.492   2.661   3.119 -0.0118 -0.0106 -0.2233
   93PVA    H4015707   2.466   2.567   3.119 -1.3288 -0.0091 -5.9129
   93PVA    C2115708   2.459   2.639   2.888  0.0492  0.3279  0.3260
   93PVA    H4115709   2.500   2.612   2.790  0.4548 -1.4632  0.9377
   93PVA    H4215710   2.418   2.539   2.905  2.0961 -0.9309 -1.5858
   93PVA    C2215711   2.334   2.739   2.860  0.4521 -0.8862 -0.3356
   93PVA    H4315712   2.273   2.725   2.950 -0.7864  1.3476 -0.7494
   93PVA    H4415713   2.363   2.845   2.865 -1.2313 -0.3575 -1.3493
   93PVA    C2315714   2.243   2.708   2.740 -0.2197 -0.8994 -0.7740
   93PVA    H4515715   2.301   2.724   2.649  2.0509 -1.4833  0.5027
   93PVA     O815716   2.191   2.577   2.746  0.3310  0.2967  0.9724
   93PVA    H4615717   2.118   2.566   2.808  0.9012 -2.6831  1.2370
   93PVA    C2415718   2.119   2.808   2.733 -1.2556 -0.0667 -0.2059
   93PVA    H4715719   2.070   2.816   2.831 -1.6290 -0.7525 -0.3345
   93PVA    H4815720   2.159   2.911   2.727 -1.9811  0.3903  1.9296
   93PVA    C2515721   2.013   2.778   2.628  0.7802  0.1350  0.0868
   93PVA    H4915722   1.965   2.686   2.662  0.2073  1.2884  2.6393
   93PVA    H5015723   2.070   2.747   2.540 -1.3908  2.9451 -2.4932
   93PVA    C2615724   1.919   2.897   2.584 -0.7715 -0.7077  0.1553
   93PVA    H5115725   1.988   2.980   2.564 -0.3754 -0.9027  0.7059
   93PVA     O915726   1.865   2.952   2.702 -0.0184  0.8637 -0.3426
   93PVA    H5215727   1.865   3.049   2.692 -1.8784  1.2059  2.1685
   93PVA    C2715728   1.812   2.896   2.466  0.3457  0.1576 -0.3080
   93PVA    H5315729   1.848   2.824   2.392  0.7086  1.1808 -1.1543
   93PVA    H5415730   1.827   2.983   2.401 -0.0389 -1.1786 -2.2819
   93PVA    C2815731   1.662   2.855   2.511  0.5863 -0.4224  0.9431
   93PVA    H5515732   1.618   2.777   2.447 -1.8589  1.7995 -0.2387
   93PVA    H5615733   1.670   2.803   2.608 -2.3373  1.3519  2.2811
   93PVA    C2915734   1.561   2.969   2.537  1.2703  0.3300  0.2539
   93PVA    H5715735   1.584   3.060   2.481  1.6263  1.6061  2.3352
   93PVA    O1015736   1.563   2.996   2.674 -1.2777  0.0580 -0.2429
   93PVA    H5815737   1.612   2.926   2.719 -3.0297 -0.8250  0.3817
   93PVA    C3015738   1.416   2.927   2.480  0.8259  0.0758 -0.5133
   93PVA    H5915739   1.385   2.831   2.523  4.6290  0.0033  2.5993
   93PVA    H6015740   1.436   2.909   2.374  1.4719 -1.3577 -0.1785
   93PVA    C3115741   1.302   3.038   2.484  0.6842  0.5277 -0.2737
   93PVA    H6115742   1.263   3.057   2.585  2.2167  5.0305 -0.2762
   93PVA    H6215743   1.349   3.136   2.463 -0.1791  0.5487 -2.2980
   93PVA    C3215744   1.182   3.022   2.383 -0.7799  0.4435  0.3551
   93PVA    H6315745   1.218   2.998   2.283  2.7703  2.0108  1.1246
   93PVA    O1115746   1.138   2.880   2.409  0.6945  0.2618 -0.1160
   93PVA    H6415747   1.042   2.888   2.422  0.6733  1.3321 -0.8609
   93PVA    C3315748   1.075   3.139   2.379  0.3459 -1.0643 -0.4901
   93PVA    H6515749   1.105   3.245   2.378  1.4005 -1.1690  3.6040
   93PVA    H6615750   1.038   3.136   2.482  3.9376  1.3688  1.0912
   93PVA    C3415751   0.960   3.100   2.280 -0.8039  0.2716  0.8687
   93PVA    H6715752   1.004   3.107   2.180 -3.0237 -2.6542 -0.4533
   93PVA    H6815753   0.928   2.996   2.295  0.4624 -0.2122  0.3211
   93PVA    C3515754   0.844   3.201   2.278 -0.4151 -0.6485 -0.2442
   93PVA    H6915755   0.800   3.215   2.377 -1.1514 -1.6411 -0.4237
   93PVA    O1215756   0.904   3.319   2.230  0.1700 -0.1918  0.5267
   93PVA    H7015757   0.943   3.371   2.303 -1.0464  0.1077  0.9909
   93PVA    C3615758   0.726   3.156   2.188  1.5048 -0.0506 -0.7433
   93PVA    H7115759   0.764   3.104   2.099  2.1650 -0.3330 -0.3025
   93PVA    H7215760   0.655   3.083   2.229  0.0609  0.5351 -2.1116
   93PVA    C3715761   0.623   3.283   2.147  0.5301  1.1456  0.2597
   93PVA    H7315762   0.538   3.214   2.137  1.2069 -0.1610  2.7838
   93PVA    H7415763   0.660   3.320   2.051 -1.3261  1.8307 -0.2414
   93PVA    C3815764   0.604   3.390   2.244  1.0995  0.5256  0.4457
   93PVA    H7515765   0.700   3.423   2.286  1.6141  1.5358 -1.4290
   93PVA    O1315766   0.529   3.333   2.351  0.0733 -0.3656 -0.9706
   93PVA    H7615767   0.457   3.288   2.305 -3.5233  4.0788 -0.4567
   93PVA    C3915768   0.518   3.498   2.183 -0.2016 -1.1245  0.0002
   93PVA    H7715769   0.413   3.467   2.176 -0.7598  0.5930  0.2068
   93PVA    H7815770   0.541   3.529   2.080  0.9592 -1.3746  0.1746
   93PVA    C4015771   0.524   3.630   2.269 -0.4885  0.8877  1.1579
   93PVA    H7915772   0.490   3.620   2.373 -0.5542  0.8977  1.1375
   93PVA    H8015773   0.629   3.661   2.270  0.6841 -2.6975  1.7736
   93PVA    C4115774   0.442   3.755   2.217 -0.6897  0.0718 -0.0500
   93PVA    H8115775   0.335   3.730   2.209 -1.1413  2.2520 -1.4534
   93PVA    O1415776   0.477   3.791   2.086 -0.7411 -0.0972 -0.0340
   93PVA    H8215777   0.574   3.795   2.093 -0.9054  1.0862  3.5779
   93PVA    C4215778   0.437   3.878   2.316  0.3549 -0.3247  0.4969
   93PVA    H8315779   0.542   3.908   2.329  0.4272 -0.7287  0.8492
   93PVA    H8415780   0.385   3.848   2.408 -0.0870  1.8319  1.0170
   93PVA    C4315781   0.357   4.003   2.257 -0.3559 -0.5491 -0.3221
   93PVA    H8515782   0.249   3.987   2.245 -0.3679 -0.7517  0.0371
   93PVA    H8615783   0.380   4.020   2.152 -5.9364  0.9866 -1.6155
   93PVA    C4415784   0.373   4.136   2.333 -1.0073 -0.7101 -0.7103
   93PVA    H8715785   0.347   4.129   2.439 -0.2877  5.7111  0.3057
   93PVA    O1515786   0.510   4.169   2.327 -0.0036 -0.1280  0.6998
   93PVA    H8815787   0.560   4.090   2.301 -2.8254 -1.2010 -1.9539
   93PVA    C4515788   0.295   4.247   2.261 -0.6066  0.5147  0.5333
   93PVA    H8915789   0.336   4.246   2.160 -1.9425 -3.5904 -0.1742
   93PVA    H9015790   0.191   4.212   2.251  0.1003 -1.3829 -0.6586
   93PVA    C4615791   0.295   4.390   2.321  0.2570 -0.6123 -0.5571
   93PVA    H9115792   0.396   4.412   2.358  0.1911 -1.8978  0.4495
   93PVA    H9215793   0.231   4.380   2.409 -4.4276 -0.3150 -3.5567
   93PVA    C4715794   0.234   4.497   2.226 -0.0355 -1.8434  0.5656
   93PVA    H9315795   0.133   4.473   2.189 -1.5099  1.4877  1.9713
   93PVA    O1615796   0.203   4.612   2.313 -0.0238 -0.5021 -0.1575
   93PVA    H9415797   0.284   4.645   2.355  0.0604  2.9413 -2.5542
   93PVA    C4815798   0.315   4.550   2.101 -0.7131 -0.7369 -0.7811
   93PVA    H9515799   0.408   4.598   2.133 -1.0306 -0.1754 -0.6735
   93PVA    H9615800   0.348   4.461   2.046  1.8191 -2.0400  2.4991
   93PVA    C4915801   0.226   4.630   1.997  0.5515 -0.7596 -0.0807
   93PVA    H9715802   0.170   4.702   2.059 -1.8467 -0.9976 -1.8570
   93PVA    H9815803   0.154   4.555   1.965 -1.1702  1.0676 -0.6977
   93PVA    C5015804   0.306   4.674   1.877  0.1221 -1.2714  0.1332
   93PVA    H9915805   0.359   4.584   1.844  1.9655  0.4275 -1.8546
   93PVA    O1715806   0.401   4.772   1.918  0.3881  0.0357  0.1949
   93PVA   H10015807   0.489   4.743   1.888  0.2189 -0.1068 -0.1744
   93PVA    C5115808   0.214   4.742   1.765  0.6064 -0.4868  0.0728
   93PVA   H10115809   0.111   4.719   1.797  0.0955 -0.1434 -1.2620
   93PVA   H10215810   0.245   4.683   1.678  1.2117 -1.1195  0.7095
   94PVA     C115811   7.251   6.815   1.345 -1.3542 -0.0033  0.3880
   94PVA     H115812   7.201   6.747   1.416  1.0080 -2.2632  0.0419
   94PVA     H215813   7.339   6.751   1.333 -0.8565  1.0325 -1.9641
   94PVA     C215814   7.202   6.837   1.195  0.0166  0.1324  0.0827
   94PVA     H315815   7.289   6.876   1.140  1.3372 -2.9221 -0.1727
   94PVA     O115816   7.083   6.919   1.198 -0.7235 -0.5980 -0.1964
   94PVA     H415817   7.064   6.899   1.292  1.9841  1.1784  0.8762
   94PVA     C315818   7.154   6.701   1.145 -0.5827  0.4577  0.0102
   94PVA     H515819   7.056   6.681   1.189 -2.7520  1.4417 -3.9124
   94PVA     H615820   7.218   6.616   1.175  0.1705  0.9947 -0.0499
   94PVA     C415821   7.119   6.692   0.997 -0.2240 -0.4769  0.7112
   94PVA     H715822   7.112   6.795   0.959 -5.5787 -1.8443 -3.3321
   94PVA     H815823   7.206   6.653   0.943 -0.7191 -0.8822  0.1892
   94PVA     C515824   6.990   6.619   0.965  0.6986  0.7986  0.9176
   94PVA     H915825   6.913   6.659   1.032  0.7892 -0.0599  1.5412
   94PVA     O215826   6.962   6.639   0.828 -1.5427  0.3731  0.0205
   94PVA    H1015827   6.905   6.571   0.788 -0.7150 -1.2604  1.4861
   94PVA     C615828   6.991   6.465   0.970 -0.3370 -1.1720  0.5675
   94PVA    H1115829   7.058   6.450   0.884  0.8421  4.4399  0.0913
   94PVA    H1215830   7.020   6.441   1.073 -1.5160 -0.8598  0.9860
   94PVA     C715831   6.857   6.398   0.927  0.2278  0.0190  0.2498
   94PVA    H1315832   6.804   6.458   0.852  0.0413  0.0288  0.3901
   94PVA    H1415833   6.794   6.392   1.016 -3.6811  1.9421 -2.1168
   94PVA     C815834   6.865   6.250   0.875  0.1225  0.4118  0.6399
   94PVA    H1515835   6.920   6.273   0.783 -0.7730  2.0652  0.4915
   94PVA     O315836   6.922   6.169   0.980 -0.8117  0.6583 -0.1889
   94PVA    H1615837   6.870   6.192   1.059  1.1449  0.8141  1.1120
   94PVA     C915838   6.730   6.190   0.845 -0.1482  0.6488  0.5517
   94PVA    H1715839   6.702   6.221   0.744  2.0888 -1.7226 -0.9217
   94PVA    H1815840   6.645   6.226   0.904 -0.2679  0.5560  0.4368
   94PVA    C1015841   6.711   6.033   0.826  0.8258  0.2452 -0.0577
   94PVA    H1915842   6.811   5.989   0.812  0.6510  0.0290 -0.6406
   94PVA    H2015843   6.702   5.986   0.925 -0.5777 -4.4511 -2.1533
   94PVA    C1115844   6.588   5.979   0.739  0.7096 -0.3195  0.1832
   94PVA    H2115845   6.503   6.034   0.781  1.6095  3.3771 -2.4145
   94PVA     O415846   6.589   6.035   0.608 -0.0590  0.5339  0.7609
   94PVA    H2215847   6.503   6.024   0.565 -0.9938 -0.9631  2.8625
   94PVA    C1215848   6.570   5.819   0.733 -0.5477 -0.5109 -0.0630
   94PVA    H2315849   6.527   5.785   0.828 -1.1953  1.0562  0.2319
   94PVA    H2415850   6.654   5.758   0.696 -1.4178 -0.9218 -1.4582
   94PVA    C1315851   6.464   5.781   0.629 -0.3715  1.2380 -0.3343
   94PVA    H2515852   6.429   5.866   0.569  0.5592  1.5147 -0.5083
   94PVA    H2615853   6.378   5.733   0.676  1.4728 -1.3119  0.6677
   94PVA    C1415854   6.500   5.665   0.526 -0.0267  1.1114 -0.6139
   94PVA    H2715855   6.576   5.708   0.460  1.7698 -1.5681 -0.4377
   94PVA     O515856   6.544   5.548   0.602  1.0335 -0.2569 -0.1862
   94PVA    H2815857   6.568   5.487   0.531  1.7631  0.2160 -0.3517
   94PVA    C1515858   6.383   5.581   0.445 -1.2132 -0.5441 -1.1146
   94PVA    H2915859   6.313   5.654   0.404 -0.0524  0.6312 -1.0519
   94PVA    H3015860   6.325   5.513   0.510  1.3771 -1.0670  0.8014
   94PVA    C1615861   6.420   5.488   0.333 -0.1011 -0.9876  0.6489
   94PVA    H3115862   6.473   5.555   0.263 -1.4586 -1.3853 -0.7958
   94PVA    H3215863   6.328   5.459   0.282 -1.8921 -2.5062  4.4108
   94PVA    C1715864   6.498   5.355   0.365 -0.3783  0.5497 -0.7321
   94PVA    H3315865   6.498   5.299   0.271 -1.5968  2.9123 -2.2192
   94PVA     O615866   6.636   5.373   0.405  0.1331  0.0041 -0.7240
   94PVA    H3415867   6.693   5.314   0.353 -2.0638 -4.8823  1.8056
   94PVA    C1815868   6.429   5.269   0.468 -0.1006  0.1430  0.2738
   94PVA    H3515869   6.429   5.331   0.559  1.5376  0.3360  0.1830
   94PVA    H3615870   6.328   5.242   0.435  0.3335 -2.7919  1.0825
   94PVA    C1915871   6.491   5.132   0.503  0.2984 -0.2993  0.5461
   94PVA    H3715872   6.601   5.142   0.507  0.4925 -1.4335 -1.0365
   94PVA    H3815873   6.469   5.070   0.415 -1.7552  1.6784 -0.4532
   94PVA    C2015874   6.428   5.062   0.631 -0.3084  0.1985  0.3157
   94PVA    H3915875   6.413   5.139   0.707 -3.5360 -2.6435  2.8765
   94PVA     O715876   6.307   5.001   0.598  0.7750  0.8885  0.2461
   94PVA    H4015877   6.308   4.925   0.659  2.7042 -0.5758 -1.4267
   94PVA    C2115878   6.533   4.953   0.686  0.7141 -0.9318  0.1058
   94PVA    H4115879   6.587   4.903   0.604 -0.5915  0.4425 -1.6893
   94PVA    H4215880   6.473   4.887   0.749  2.5861 -3.2787 -0.4327
   94PVA    C2215881   6.639   5.018   0.771 -0.1262  0.0937  0.2847
   94PVA    H4315882   6.589   5.099   0.826  1.1830 -1.1287  3.4486
   94PVA    H4415883   6.699   5.064   0.692 -0.7939 -1.9484 -1.5026
   94PVA    C2315884   6.730   4.941   0.874  0.3610 -0.1889 -0.8198
   94PVA    H4515885   6.782   4.858   0.825  1.0320  0.0907 -0.5956
   94PVA     O815886   6.643   4.874   0.963 -0.6816  0.3575  0.4378
   94PVA    H4615887   6.702   4.831   1.027  3.2819  2.1024 -1.6576
   94PVA    C2415888   6.828   5.038   0.951  0.1600 -0.9364 -0.0071
   94PVA    H4715889   6.794   5.142   0.960 -1.8766 -1.7390  2.9425
   94PVA    H4815890   6.902   5.047   0.870 -0.1950 -1.9230 -0.4483
   94PVA    C2515891   6.892   5.005   1.092  0.0482  0.4821  0.3691
   94PVA    H4915892   6.835   5.020   1.185 -1.1905  0.6641 -0.4026
   94PVA    H5015893   6.924   4.902   1.071 -0.5105  0.4348 -0.2964
   94PVA    C2615894   7.024   5.085   1.105 -0.3929 -0.7695  0.2440
   94PVA    H5115895   7.100   5.051   1.033  0.9801  0.7888  0.8878
   94PVA     O915896   6.995   5.221   1.084  0.4631 -0.5215 -0.1233
   94PVA    H5215897   7.010   5.236   0.989  3.1465 -0.7030  0.1973
   94PVA    C2715898   7.087   5.065   1.245  0.6100  0.1789  0.7145
   94PVA    H5315899   7.148   4.974   1.239  1.2412  0.6391 -0.1997
   94PVA    H5415900   7.007   5.058   1.319 -1.8931 -4.0990 -1.9830
   94PVA    C2815901   7.163   5.189   1.298 -0.8941  1.3133 -0.8144
   94PVA    H5515902   7.249   5.222   1.239  1.5043 -1.8917  0.5777
   94PVA    H5615903   7.107   5.282   1.287 -2.4070  0.8110  1.8633
   94PVA    C2915904   7.194   5.158   1.440 -0.7882  1.7438  0.5853
   94PVA    H5715905   7.100   5.170   1.496 -0.5249 -0.2291  1.5395
   94PVA    O1015906   7.253   5.036   1.473 -0.4393  0.5483 -0.2312
   94PVA    H5815907   7.292   5.043   1.562  0.0323  0.7900 -0.4523
   94PVA    C3015908   7.293   5.262   1.503  0.3677  1.2190  0.8120
   94PVA    H5915909   7.396   5.232   1.483  0.5898  0.4341  2.8713
   94PVA    H6015910   7.295   5.358   1.450 -3.8658 -0.3121 -2.7577
   94PVA    C3115911   7.284   5.299   1.650  0.1760  0.7386  0.2362
   94PVA    H6115912   7.258   5.210   1.708  1.0628  0.4967  0.2706
   94PVA    H6215913   7.207   5.370   1.685 -0.8697  0.0880 -0.6974
   94PVA    C3215914   7.404   5.356   1.718 -0.4586  0.1907  0.2507
   94PVA    H6315915   7.446   5.440   1.661  1.5776  0.2029  1.6326
   94PVA    O1115916   7.507   5.257   1.724 -0.8478  0.2231 -0.3708
   94PVA    H6415917   7.590   5.299   1.698  0.4049 -0.1187  2.6257
   94PVA    C3315918   7.372   5.406   1.855  0.1798  0.5741  1.8592
   94PVA    H6515919   7.280   5.466   1.852  0.9845  1.8187 -0.2795
   94PVA    H6615920   7.359   5.320   1.922  3.5161 -0.2590  1.6291
   94PVA    C3415921   7.494   5.485   1.921 -0.0659 -0.1101  0.5190
   94PVA    H6715922   7.502   5.578   1.863 -0.1018 -0.2724  0.2525
   94PVA    H6815923   7.589   5.436   1.897  0.8568  2.7512 -2.4113
   94PVA    C3515924   7.458   5.524   2.066  0.5076  1.2791 -0.7473
   94PVA    H6915925   7.553   5.545   2.117  2.4203 -0.7310 -3.2010
   94PVA    O1215926   7.406   5.658   2.062 -0.0559  0.1171  0.1153
   94PVA    H7015927   7.471   5.719   2.023  2.1222 -1.9671  0.2316
   94PVA    C3615928   7.364   5.425   2.146  0.2517 -0.6056 -0.7941
   94PVA    H7115929   7.267   5.431   2.095  0.5255 -1.7264 -1.4893
   94PVA    H7215930   7.406   5.324   2.135  1.8993 -0.2372  1.3579
   94PVA    C3715931   7.356   5.453   2.295  0.4343 -1.0493 -0.0650
   94PVA    H7315932   7.451   5.429   2.346 -0.6764 -1.8751  1.7378
   94PVA    H7415933   7.287   5.385   2.348 -0.6597 -0.5551 -0.8377
   94PVA    C3815934   7.291   5.593   2.327  0.0844 -0.4261 -1.0890
   94PVA    H7515935   7.363   5.675   2.314 -0.7851  0.6110  0.3447
   94PVA    O1315936   7.185   5.614   2.246 -0.1744  0.3523 -0.3532
   94PVA    H7615937   7.214   5.642   2.157 -2.0104 -0.5136 -1.2876
   94PVA    C3915938   7.228   5.612   2.474  0.9926  0.8694 -0.1999
   94PVA    H7715939   7.151   5.690   2.478 -1.8279 -1.7789  1.8481
   94PVA    H7815940   7.181   5.515   2.498  1.9137  0.5077  0.2088
   94PVA    C4015941   7.335   5.617   2.593 -0.3330 -1.2364 -0.5146
   94PVA    H7915942   7.419   5.548   2.582 -0.1152 -1.1682  0.5561
   94PVA    H8015943   7.304   5.580   2.692 -3.2985  1.7548 -0.1336
   94PVA    C4115944   7.379   5.769   2.619  0.1437  0.5876 -0.0346
   94PVA    H8115945   7.288   5.829   2.630  0.0722  0.0128  5.0524
   94PVA    O1415946   7.445   5.782   2.740  0.6246  0.3267 -0.1521
   94PVA    H8215947   7.532   5.808   2.707  0.8400  2.9642  2.1665
   94PVA    C4215948   7.464   5.838   2.516 -0.4668  0.0857  0.8035
   94PVA    H8315949   7.396   5.856   2.432 -0.1620 -0.8203  0.3461
   94PVA    H8415950   7.504   5.935   2.547  0.3849 -0.3930  1.2328
   94PVA    C4315951   7.592   5.740   2.482  0.5732 -0.4507 -0.1928
   94PVA    H8515952   7.553   5.671   2.407 -1.1496  0.2629  0.0076
   94PVA    H8615953   7.616   5.687   2.575 -1.0812 -0.1535  0.4331
   94PVA    C4415954   7.699   5.823   2.418  0.5949 -0.1154 -0.0747
   94PVA    H8715955   7.706   5.917   2.473  4.1692 -0.2657 -0.0472
   94PVA    O1515956   7.673   5.851   2.276 -0.1012 -0.4705 -1.3579
   94PVA    H8815957   7.668   5.947   2.259 -0.1011 -0.4484 -1.2412
   94PVA    C4515958   0.076   5.777   2.416 -0.3247 -0.5292  0.9348
   94PVA    H8915959   0.140   5.835   2.348  3.4528  3.0431  6.6563
   94PVA    H9015960   0.118   5.793   2.516 -0.4130  3.4362  0.4962
   94PVA    C4615961   0.094   5.630   2.376 -0.5556 -0.3508  1.5167
   94PVA    H9115962   0.203   5.640   2.362 -1.0079  2.2910 -1.2521
   94PVA    H9215963   0.082   5.556   2.456 -3.0239 -0.5590  1.0335
   94PVA    C4715964   0.026   5.567   2.245  0.0162 -0.1198 -0.0641
   94PVA    H9315965   7.692   5.546   2.286  0.3430  0.6783  1.1927
   94PVA    O1615966   0.023   5.654   2.131  0.4891 -0.3900 -0.2571
   94PVA    H9415967   7.737   5.733   2.155 -1.7250 -0.6331 -3.4771
   94PVA    C4815968   0.086   5.433   2.201  0.3727  0.6840  0.7188
   94PVA    H9515969   0.182   5.461   2.156 -0.3228 -0.3707 -1.5614
   94PVA    H9615970   0.113   5.379   2.293  0.2107 -2.6360 -1.0189
   94PVA    C4915971   0.016   5.351   2.094 -0.4855  0.1609  0.7053
   94PVA    H9715972   7.739   5.415   2.016 -0.2608  0.6719  0.9965
   94PVA    H9815973   7.689   5.312   2.137 -2.3060  2.8161 -0.5382
   94PVA    C5015974   0.087   5.231   2.035 -0.2753  0.4599  0.8468
   94PVA    H9915975   0.058   5.134   2.077  0.1852 -1.6926 -3.3506
   94PVA    O1715976   0.228   5.258   2.052 -0.2743 -0.7832  0.5350
   94PVA   H10015977   0.228   5.354   2.062 -1.1138 -0.8813  1.6434
   94PVA    C5115978   0.059   5.216   1.883  0.0153 -0.0375 -0.8187
   94PVA   H10115979   0.070   5.314   1.835 -1.7715  0.2189 -0.7753
   94PVA   H10215980   7.722   5.185   1.859  0.7873 -1.4869 -2.4819
   95PVA     C115981   7.405   7.045   1.781 -0.5171 -0.3827 -0.1673
   95PVA     H115982   7.386   7.143   1.827  0.2557 -0.9182  1.3575
   95PVA     H215983   7.511   7.018   1.778 -0.9025 -2.4160  1.6448
   95PVA     C215984   7.311   6.947   1.863 -0.0080 -0.5591 -0.2004
   95PVA     H315985   7.347   6.855   1.815  0.5994  0.7636 -2.4161
   95PVA     O115986   7.171   6.967   1.825 -0.0024 -0.2723  0.0113
   95PVA     H415987   7.177   7.058   1.791  1.6053  0.3758  1.8152
   95PVA     C315988   7.327   6.926   2.017  1.7121 -0.4996  0.3307
   95PVA     H515989   7.247   6.855   2.041  1.2587 -0.8241 -1.8751
   95PVA     H615990   7.426   6.892   2.050  3.5104  2.3931 -1.6328
   95PVA     C415991   7.294   7.058   2.094  0.1255  0.3354 -0.3753
   95PVA     H715992   7.191   7.089   2.073  1.1806  3.5663 -1.4223
   95PVA     H815993   7.360   7.140   2.061 -0.5140  0.1679 -2.1508
   95PVA     C515994   7.303   7.032   2.249 -0.3169 -0.3243  0.0657
   95PVA     H915995   7.287   6.929   2.282  1.6604  0.2283  3.1198
   95PVA     O215996   7.431   7.071   2.308  0.2300 -0.0752 -0.3436
   95PVA    H1015997   7.493   7.042   2.238  0.6366  0.7847 -0.3490
   95PVA     C615998   7.181   7.108   2.308 -0.2868 -0.1183 -0.7830
   95PVA    H1115999   7.146   7.198   2.255 -0.6945  0.4873  0.4832
   95PVA    H1216000   7.096   7.040   2.298 -2.0156  1.5418  1.7344
   95PVA     C716001   7.175   7.153   2.463  0.5257 -0.4292  0.3102
   95PVA    H1316002   7.210   7.257   2.475  1.2646 -0.5578 -0.6239
   95PVA    H1416003   7.222   7.087   2.537 -2.6707  2.0758  5.1533
   95PVA     C816004   7.032   7.147   2.520  0.3094 -0.3344  1.1278
   95PVA    H1516005   6.973   7.057   2.501 -2.0014  1.3445 -0.3113
   95PVA     O316006   6.961   7.253   2.462 -0.1562  1.1431  0.0449
   95PVA    H1616007   6.935   7.197   2.387 -0.5142 -0.8204  1.5507
   95PVA     C916008   7.027   7.144   2.667 -1.5066 -0.0907 -0.4239
   95PVA    H1716009   7.021   7.247   2.705 -3.7192 -0.6706  1.0040
   95PVA    H1816010   7.124   7.116   2.709 -2.0382 -0.6560  0.4722
   95PVA    C1016011   6.935   7.036   2.736 -0.1361  0.3198 -0.7971
   95PVA    H1916012   6.931   7.052   2.844  0.0748  1.8881 -1.0028
   95PVA    H2016013   6.967   6.932   2.724 -1.2090  0.0230 -1.2277
   95PVA    C1116014   6.779   7.027   2.698 -1.0225 -0.0593 -0.5029
   95PVA    H2116015   6.728   7.124   2.697  3.5255  2.5969 -1.6379
   95PVA     O416016   6.762   6.981   2.568 -0.1400 -0.3665 -0.7059
   95PVA    H2216017   6.704   7.049   2.529 -3.1951 -2.9767 -1.1195
   95PVA    C1216018   6.710   6.928   2.800  0.9163 -1.5187 -0.1520
   95PVA    H2316019   6.780   6.846   2.819  1.3693 -0.4388  3.8763
   95PVA    H2416020   6.700   6.971   2.901 -2.1118 -0.1463 -0.9223
   95PVA    C1316021   6.563   6.877   2.772  0.2033 -0.3035  0.9419
   95PVA    H2516022   6.551   6.864   2.664  3.1631 -2.6335  0.7699
   95PVA    H2616023   6.497   6.964   2.780 -0.7591 -0.5868 -2.5315
   95PVA    C1416024   6.533   6.746   2.850  0.2674 -0.3831  0.2398
   95PVA    H2716025   6.586   6.752   2.945 -1.7012 -1.0429  1.4491
   95PVA     O516026   6.550   6.643   2.761  0.0133  0.3822 -0.1545
   95PVA    H2816027   6.624   6.591   2.798  1.5969  0.4925 -2.8941
   95PVA    C1516028   6.383   6.741   2.902 -0.3050  0.8498  0.9673
   95PVA    H2916029   6.352   6.822   2.969 -0.3469 -0.8406  3.1201
   95PVA    H3016030   6.315   6.751   2.816 -2.7669 -1.4842  2.4604
   95PVA    C1616031   6.353   6.620   2.984 -0.5817 -0.0293  0.0551
   95PVA    H3116032   6.439   6.608   3.051  0.9383 -3.2702 -2.2143
   95PVA    H3216033   6.360   6.538   2.912  3.2471 -0.9717  1.2749
   95PVA    C1716034   6.221   6.618   3.069 -0.7999  0.1223  1.4634
   95PVA    H3316035   6.245   6.645   3.172  0.0803  0.6694  1.1297
   95PVA     O616036   6.135   6.706   3.005  0.0108  0.8520 -0.1300
   95PVA    H3416037   6.130   6.791   3.052  1.4820  0.3134  1.1155
   95PVA    C1816038   6.178   6.465   3.072  1.2513  0.5208 -0.6866
   95PVA    H3516039   6.177   6.420   2.972 -0.8574 -3.6033  0.9230
   95PVA    H3616040   6.238   6.399   3.136 -0.7715  1.1469  2.0056
   95PVA    C1916041   6.037   6.430   3.136  0.4638 -0.8975 -0.8236
   95PVA    H3716042   5.958   6.493   3.094 -1.9330  0.1459  4.4098
   95PVA    H3816043   6.058   6.455   3.241  3.7176 -0.6504 -1.4286
   95PVA    C2016044   6.017   6.277   3.144  0.2735 -0.3633  0.6575
   95PVA    H3916045   6.116   6.236   3.167  0.3439 -0.2435  0.5668
   95PVA     O716046   5.964   6.233   3.020 -0.0810  0.0568  0.4263
   95PVA    H4016047   5.969   6.136   3.026  0.5740  0.0522 -0.1205
   95PVA    C2116048   5.922   6.217   3.247  0.5717 -0.0194 -0.0316
   95PVA    H4116049   5.818   6.237   3.219 -0.2033  2.6792  3.9109
   95PVA    H4216050   5.938   6.266   3.344  0.3784 -1.1029  0.5608
   95PVA    C2216051   5.920   6.057   3.255 -0.1178 -1.2894  0.9066
   95PVA    H4316052   6.024   6.030   3.235 -0.2186  0.9325 -4.2023
   95PVA    H4416053   5.878   6.018   3.349  2.2830  0.3830  2.8194
   95PVA    C2316054   5.823   5.976   3.170  0.2513  0.7656  0.3722
   95PVA    H4516055   5.834   6.005   3.064  2.9569  2.0744  0.9128
   95PVA     O816056   5.862   5.838   3.154  0.4064 -0.6897 -0.4534
   95PVA    H4616057   5.945   5.849   3.105 -0.6734  4.8700 -1.7379
   95PVA    C2416058   5.680   5.995   3.202 -0.5326 -0.7346  0.7573
   95PVA    H4716059   5.660   5.905   3.261  2.4744 -2.1953 -0.2402
   95PVA    H4816060   5.660   6.085   3.262 -1.6054  0.4251 -1.2427
   95PVA    C2516061   5.568   5.983   3.088  0.4822  0.4754 -0.5530
   95PVA    H4916062   5.577   5.886   3.038  3.5125  0.4445 -0.1573
   95PVA    H5016063   5.610   6.055   3.015  3.7607 -1.4389 -0.7576
   95PVA    C2616064   5.424   6.013   3.139  0.7730 -0.9126 -0.0373
   95PVA    H5116065   5.421   6.106   3.197 -0.3010 -2.0062  1.7335
   95PVA     O916066   5.394   5.906   3.223  0.1334 -0.1570 -0.5208
   95PVA    H5216067   5.434   5.833   3.173 -2.8760 -1.2261 -1.6124
   95PVA    C2716068   5.315   6.061   3.028 -0.8841 -0.3029  0.3765
   95PVA    H5316069   5.292   5.966   2.978  0.2369 -0.9230  0.9990
   95PVA    H5416070   5.353   6.119   2.943 -0.1276  1.9816  2.1751
   95PVA    C2816071   5.188   6.134   3.068 -0.0748 -0.5265  0.2476
   95PVA    H5516072   5.212   6.212   3.142 -3.6366  0.7379  0.2793
   95PVA    H5616073   5.119   6.058   3.106 -2.6419  0.9226 -1.2578
   95PVA    C2916074   5.103   6.193   2.961 -0.3874  0.1961  0.1136
   95PVA    H5716075   5.086   6.114   2.887 -2.0866  1.1066 -0.5172
   95PVA    O1016076   5.185   6.283   2.892  0.5179  0.0887 -0.0091
   95PVA    H5816077   5.245   6.326   2.956  0.6946  1.3886 -0.9841
   95PVA    C3016078   4.962   6.235   3.010  0.0011  0.1577 -1.3779
   95PVA    H5916079   4.916   6.138   3.035  0.0018  0.8470  1.8365
   95PVA    H6016080   4.959   6.294   3.103 -0.9104  1.2528 -2.0766
   95PVA    C3116081   4.877   6.298   2.884  0.1967  0.5781  1.4572
   95PVA    H6116082   4.769   6.283   2.890 -0.1185  1.7388 -0.5095
   95PVA    H6216083   4.882   6.228   2.799 -1.2636  2.0778  0.0882
   95PVA    C3216084   4.899   6.449   2.854 -0.6881 -1.6436  0.5218
   95PVA    H6316085   4.904   6.512   2.944 -2.0295 -0.5970 -0.1116
   95PVA    O1116086   5.018   6.447   2.774  0.4035 -0.4399 -0.0608
   95PVA    H6416087   5.067   6.367   2.800  2.6894  1.3955  1.7137
   95PVA    C3316088   4.799   6.510   2.750  0.2380 -0.1767 -0.4080
   95PVA    H6516089   4.705   6.519   2.806 -0.9513  0.2980 -2.3685
   95PVA    H6616090   4.790   6.437   2.669 -2.2568 -0.5661  0.1549
   95PVA    C3416091   4.832   6.649   2.689 -0.4471  0.3851  0.1096
   95PVA    H6716092   4.864   6.722   2.765 -0.8936  3.0864 -2.1280
   95PVA    H6816093   4.922   6.641   2.627 -2.6113  2.4834 -3.7034
   95PVA    C3516094   4.709   6.688   2.585  0.4643  0.3960 -0.5650
   95PVA    H6916095   4.652   6.597   2.561  0.1753  0.0885  1.1158
   95PVA    O1216096   4.762   6.720   2.463 -0.8902 -0.2144 -0.4693
   95PVA    H7016097   4.816   6.800   2.463 -1.0692 -0.0834 -1.4198
   95PVA    C3616098   4.613   6.796   2.649 -0.1024  0.8688  0.3990
   95PVA    H7116099   4.584   6.775   2.753  1.9202  0.9486  1.0119
   95PVA    H7216100   4.516   6.792   2.597  1.2206  1.9943 -2.2989
   95PVA    C3716101   4.662   6.932   2.625 -0.1174 -0.0710 -0.0874
   95PVA    H7316102   4.768   6.928   2.652  0.0946  3.1738 -0.0987
   95PVA    H7416103   4.643   6.962   2.521 -3.3240 -0.2534  0.3544
   95PVA    C3816104   4.589   7.051   2.705 -0.2899  0.0289  0.0751
   95PVA    H7516105   4.480   7.050   2.694 -0.0419  1.0473 -6.6089
   95PVA    O1316106   4.625   7.030   2.839  0.2430 -0.2506 -0.1240
   95PVA    H7616107   4.576   6.948   2.852 -1.0179  0.1760 -1.8155
   95PVA    C3916108   4.632   7.184   2.634  0.0408 -0.0440 -0.5304
   95PVA    H7716109   4.577   7.186   2.540 -2.8397  0.6028  1.0416
   95PVA    H7816110   4.737   7.165   2.609 -0.0417  2.3750 -3.2276
   95PVA    C4016111   4.609   7.314   2.725 -0.5231  0.3896  0.6223
   95PVA    H7916112   4.514   7.307   2.779 -1.1990  2.4133 -0.1738
   95PVA    H8016113   4.684   7.300   2.804 -2.4743 -3.2906  2.0358
   95PVA    C4116114   4.642   7.449   2.652  0.8492  0.0216 -0.1042
   95PVA    H8116115   4.740   7.462   2.602 -0.8806 -1.0243 -4.2139
   95PVA    O1416116   4.552   7.463   2.550 -0.3618 -0.2189  0.3882
   95PVA    H8216117   4.599   7.418   2.478 -0.5370  0.0867  0.0791
   95PVA    C4216118   4.612   7.569   2.742  0.8283 -0.0134 -0.2255
   95PVA    H8316119   4.512   7.608   2.716  2.2448  1.7211 -3.6679
   95PVA    H8416120   4.591   7.542   2.846 -0.2601 -1.9233 -0.8896
   95PVA    C4316121   4.707   0.003   2.763 -0.6765 -0.7403 -1.0550
   95PVA    H8516122   4.803   7.645   2.793 -1.7824 -1.9858  0.9885
   95PVA    H8616123   4.741   0.043   2.666 -1.8722 -0.8513 -1.5434
   95PVA    C4416124   4.650   0.105   2.867  0.2563  0.0484 -0.0934
   95PVA    H8716125   4.579   0.060   2.937  0.9005  3.0629  2.7467
   95PVA    O1516126   4.754   0.153   2.947  1.0440 -0.1684  0.1576
   95PVA    H8816127   4.788   0.078   2.999  2.6260  1.2551  1.3045
   95PVA    C4516128   4.574   0.220   2.795 -0.2713 -0.6028 -0.2473
   95PVA    H8916129   4.479   0.173   2.768 -0.0307 -0.7668 -0.8236
   95PVA    H9016130   4.600   0.223   2.688 -0.7285 -4.5738 -0.6042
   95PVA    C4616131   4.555   0.355   2.863 -0.4903 -1.1448  0.5934
   95PVA    H9116132   4.531   0.353   2.970  1.1548  2.6218  1.1711
   95PVA    H9216133   4.658   0.394   2.857 -0.3358 -1.6525 -0.2517
   95PVA    C4716134   4.445   0.452   2.801 -0.4912  0.9029 -0.2877
   95PVA    H9316135   4.341   0.417   2.806  0.2748 -1.7371 -1.3204
   95PVA    O1616136   4.456   0.473   2.655 -0.6230 -0.4881 -0.3423
   95PVA    H9416137   4.365   0.473   2.621 -0.6607  1.6905 -0.3452
   95PVA    C4816138   4.442   0.591   2.865 -0.5801 -0.2531  1.2178
   95PVA    H9516139   4.440   0.591   2.975  1.4054 -0.3761  1.2785
   95PVA    H9616140   4.542   0.632   2.846 -1.8915  3.8688  2.2434
   95PVA    C4916141   4.338   0.695   2.813  0.2801 -0.2545 -0.0749
   95PVA    H9716142   4.249   0.661   2.867  1.7541 -1.2200  1.8560
   95PVA    H9816143   4.316   0.687   2.706 -1.8315 -0.9084  0.3675
   95PVA    C5016144   4.362   0.848   2.828  0.0904  0.2520 -0.3198
   95PVA    H9916145   4.445   0.861   2.899 -1.0663  0.4229  1.0347
   95PVA    O1716146   4.388   0.906   2.701  0.7536 -0.0660 -0.3275
   95PVA   H10016147   4.465   0.869   2.656  2.0452 -0.4345  2.0096
   95PVA    C5116148   4.248   0.935   2.893 -0.0752 -0.4778  0.0769
   95PVA   H10116149   4.231   0.913   3.000 -3.3062  2.4683  0.3162
   95PVA   H10216150   4.147   0.918   2.855 -0.0113  0.3770 -0.4859
   96PVA     C116151   0.648   5.480   0.980  0.4405  0.4134  0.6607
   96PVA     H116152   0.603   5.548   0.907  3.2775  2.4974  0.6737
   96PVA     H216153   0.710   5.433   0.903 -3.0384  0.7132 -2.5828
   96PVA     C216154   0.729   5.566   1.077 -0.6393  1.2740 -0.7354
   96PVA     H316155   0.644   5.599   1.137 -0.6892 -1.6360  0.9808
   96PVA     O116156   0.804   5.498   1.177 -0.0434 -0.1971 -0.6000
   96PVA     H416157   0.781   5.404   1.171  2.9204 -1.3133  2.3245
   96PVA     C316158   0.813   5.682   1.001  0.4422 -0.7369  0.2891
   96PVA     H516159   0.744   5.766   0.986  1.0186 -0.1789  0.7124
   96PVA     H616160   0.852   5.656   0.901 -2.6307  1.7424 -1.7437
   96PVA     C416161   0.938   5.710   1.071 -0.5665 -1.0824 -0.1308
   96PVA     H716162   0.903   5.731   1.173  0.9551 -0.5828  0.3120
   96PVA     H816163   1.007   5.626   1.077 -0.5137 -1.5645 -4.5024
   96PVA     C516164   1.022   5.831   1.018  0.0266 -0.3439  1.1357
   96PVA     H916165   0.988   5.912   1.084  0.6677 -1.2578  2.6117
   96PVA     O216166   1.009   5.885   0.885  0.6479 -0.0355  0.2062
   96PVA    H1016167   0.925   5.858   0.844  0.9924  2.6860 -2.6606
   96PVA     C616168   1.176   5.805   1.035 -0.8480 -1.5876 -0.3489
   96PVA    H1116169   1.212   5.731   0.963  3.8504 -0.5687  0.5755
   96PVA    H1216170   1.205   5.765   1.133  3.6326 -0.1211 -0.8504
   96PVA     C716171   1.279   5.932   1.020  0.7415  0.6968 -0.7639
   96PVA    H1316172   1.244   6.030   1.056  1.5003  0.2321  1.3720
   96PVA    H1416173   1.258   5.939   0.913 -0.7072  0.2226 -0.5310
   96PVA     C816174   1.427   5.902   1.044 -0.5781 -0.7926  0.3507
   96PVA    H1516175   1.472   5.851   0.959  0.6269  5.4846 -3.3939
   96PVA     O316176   1.440   5.844   1.182  0.4094 -0.4349  0.5663
   96PVA    H1616177   1.531   5.863   1.213  1.6603 -1.3917 -2.2018
   96PVA     C916178   1.512   6.035   1.069 -0.2618 -0.5508 -0.6926
   96PVA    H1716179   1.501   6.068   1.173 -5.1815  0.7533 -1.3716
   96PVA    H1816180   1.480   6.125   1.015  1.1169 -0.2211 -0.9949
   96PVA    C1016181   1.676   6.028   1.047 -0.1290 -0.5609  0.5511
   96PVA    H1916182   1.692   6.020   0.939 -0.4473 -4.7022  0.6415
   96PVA    H2016183   1.716   5.931   1.080  1.2420 -0.6528 -1.2437
   96PVA    C1116184   1.768   6.128   1.113 -0.5049 -0.7999 -0.6946
   96PVA    H2116185   1.700   6.211   1.140  1.4603  1.0042 -1.0379
   96PVA     O416186   1.812   6.073   1.241 -0.8298  0.2175  0.3861
   96PVA    H2216187   1.742   6.019   1.282 -0.2124 -0.2309  0.8760
   96PVA    C1216188   1.890   6.206   1.036 -0.7451  1.1056  0.4352
   96PVA    H2316189   1.977   6.192   1.102 -0.7328  2.0504  0.6383
   96PVA    H2416190   1.922   6.138   0.957  1.9402  1.5378  1.0653
   96PVA    C1316191   1.875   6.359   0.988 -0.4823 -0.3129  0.3906
   96PVA    H2516192   1.871   6.369   0.879 -2.9921  1.4370  0.5531
   96PVA    H2616193   1.787   6.397   1.041 -0.4563  0.7485 -0.2996
   96PVA    C1416194   1.987   6.461   1.022 -0.3908 -0.7465  0.1870
   96PVA    H2716195   2.040   6.419   1.109 -2.2603 -2.5700  0.5005
   96PVA     O516196   2.090   6.462   0.923 -0.6546 -1.0472 -0.1501
   96PVA    H2816197   2.048   6.496   0.842  0.5778  1.8344  0.2726
   96PVA    C1516198   1.960   6.616   1.075  1.9960  0.9310  1.2396
   96PVA    H2916199   1.889   6.616   1.159  1.6785  1.8747  0.9925
   96PVA    H3016200   1.911   6.671   0.993  2.1322  0.3785  0.7785
   96PVA    C1616201   2.082   6.701   1.114  0.5918  1.3962 -0.0585
   96PVA    H3116202   2.160   6.626   1.092  0.5431  2.2289 -3.5715
   96PVA    H3216203   2.117   6.783   1.051  0.5379  0.8458 -0.8212
   96PVA    C1716204   2.072   6.772   1.245  0.0208 -0.7448 -0.1631
   96PVA    H3316205   2.035   6.699   1.318  2.4345  2.1150  4.4169
   96PVA     O616206   1.991   6.883   1.247 -0.3107  0.9005  0.3941
   96PVA    H3416207   1.957   6.888   1.156 -0.2460 -1.4064  0.1765
   96PVA    C1816208   2.190   6.819   1.337 -0.4890  0.3843  0.4572
   96PVA    H3516209   2.167   6.804   1.444 -1.7540 -0.0803  0.1406
   96PVA    H3616210   2.262   6.736   1.339  1.4768  2.0336  2.3508
   96PVA    C1916211   2.268   6.951   1.321 -0.5324 -0.2135  0.1783
   96PVA    H3716212   2.217   7.013   1.247  1.9201 -0.8175 -2.1845
   96PVA    H3816213   2.359   6.917   1.270 -1.0597 -2.0798  0.3949
   96PVA    C2016214   2.298   7.044   1.453 -0.1810  0.0572 -0.2136
   96PVA    H3916215   2.203   7.064   1.503  1.4990  0.5229  3.0399
   96PVA     O716216   2.357   6.968   1.544  0.2280  0.0138  0.2036
   96PVA    H4016217   2.446   7.005   1.557 -0.4706  1.2207  1.9010
   96PVA    C2116218   2.392   7.168   1.416  0.4958  0.5711 -0.5295
   96PVA    H4116219   2.345   7.193   1.320 -2.7187 -1.0160  0.4542
   96PVA    H4216220   2.493   7.127   1.417  1.0498  1.7412  2.6535
   96PVA    C2216221   2.410   7.305   1.499 -0.4052  0.2419  0.4768
   96PVA    H4316222   2.313   7.325   1.546  0.1873  2.2110  0.9663
   96PVA    H4416223   2.481   7.309   1.582 -1.8940  0.4049  1.7931
   96PVA    C2316224   2.427   7.435   1.404 -0.3848  0.9889  0.2500
   96PVA    H4516225   2.392   7.412   1.303 -0.2968  0.0975  0.4107
   96PVA     O816226   2.569   7.424   1.393 -0.3575  0.4919  0.7029
   96PVA    H4616227   2.608   7.492   1.336  1.5218 -1.6092 -0.6941
   96PVA    C2416228   2.380   7.576   1.453 -0.0964  1.0887  0.5931
   96PVA    H4716229   2.273   7.575   1.475 -1.4501  0.4350 -4.6270
   96PVA    H4816230   2.435   7.618   1.538  1.4301  4.0649 -1.6506
   96PVA    C2516231   2.373   7.684   1.333  0.5202  0.0836 -0.0660
   96PVA    H4916232   2.460   7.667   1.269  2.3506  2.4629  1.6309
   96PVA    H5016233   2.291   7.643   1.272  0.0671  3.4625 -1.9364
   96PVA    C2616234   2.321   0.138   1.385 -0.2274 -0.1135 -0.3156
   96PVA    H5116235   2.359   0.183   1.477 -5.1909  2.6375  0.7272
   96PVA     O916236   2.180   0.149   1.419 -0.1972  0.9708 -0.2910
   96PVA    H5216237   2.127   0.068   1.410 -1.2771  1.8719 -3.1952
   96PVA    C2716238   2.341   0.247   1.270  0.2050 -0.1925 -0.6206
   96PVA    H5316239   2.263   0.226   1.196 -2.6522 -2.2467  2.6990
   96PVA    H5416240   2.425   0.227   1.202 -2.3459 -0.1723 -4.0272
   96PVA    C2816241   2.345   0.388   1.317  0.3082 -1.2976  0.0213
   96PVA    H5516242   2.253   0.386   1.376 -1.0124  1.8211 -1.6754
   96PVA    H5616243   2.442   0.402   1.366 -1.4377  2.1999  2.9539
   96PVA    C2916244   2.326   0.507   1.210  0.2766  0.5727  0.1413
   96PVA    H5716245   2.393   0.473   1.131 -2.0299 -2.6342 -0.6523
   96PVA    O1016246   2.187   0.490   1.172  0.6220  0.3051  0.4213
   96PVA    H5816247   2.137   0.516   1.252  0.4541 -1.3642  0.8955
   96PVA    C3016248   2.364   0.671   1.222 -0.6117  1.1116  0.2115
   96PVA    H5916249   2.276   0.724   1.259 -0.6399  2.2535 -1.3943
   96PVA    H6016250   2.352   0.722   1.126 -1.2516  2.8587  1.1889
   96PVA    C3116251   2.494   0.734   1.284  0.1206  0.0579  0.9958
   96PVA    H6116252   2.584   0.702   1.230  0.8324  0.1507  2.0933
   96PVA    H6216253   2.510   0.702   1.388  0.8634 -3.2992 -0.0192
   96PVA    C3216254   2.492   0.894   1.287 -0.1933  0.8768 -0.6738
   96PVA    H6316255   2.389   0.919   1.316  0.5954  1.9155  1.4288
   96PVA    O1116256   2.527   0.945   1.161 -0.4805 -0.5292  0.4033
   96PVA    H6416257   2.451   0.994   1.124  1.4698  0.0232 -3.3658
   96PVA    C3316258   2.564   0.960   1.406 -0.2186  0.3406  0.2967
   96PVA    H6516259   2.666   0.919   1.404 -0.1979  0.4093 -0.1482
   96PVA    H6616260   2.511   0.917   1.491  1.5616  0.2201  1.4064
   96PVA    C3416261   2.557   1.110   1.411  0.1175  0.5877  0.5045
   96PVA    H6716262   2.592   1.165   1.323 -2.4217  2.9581  0.8440
   96PVA    H6816263   2.451   1.135   1.425 -0.6065 -1.3974 -0.9800
   96PVA    C3516264   2.639   1.155   1.527  0.8738 -0.1912  0.3923
   96PVA    H6916265   2.607   1.089   1.608  0.9236  1.7353  2.0829
   96PVA    O1216266   2.778   1.126   1.494  0.0073  0.0363  0.8810
   96PVA    H7016267   2.839   1.156   1.563  2.2332 -1.5697 -0.2630
   96PVA    C3616268   2.617   1.303   1.601 -0.3450 -0.1977 -0.5370
   96PVA    H7116269   2.545   1.362   1.542  2.9848  2.4512 -2.3110
   96PVA    H7216270   2.581   1.289   1.704  0.4577  1.3782 -0.0087
   96PVA    C3716271   2.736   1.405   1.616  0.3554 -0.1845 -0.6263
   96PVA    H7316272   2.740   1.481   1.537 -0.2139  2.4836  1.7789
   96PVA    H7416273   2.824   1.343   1.592  2.6722  2.5229  0.3419
   96PVA    C3816274   2.739   1.482   1.757  0.2974 -0.8516  0.2796
   96PVA    H7516275   2.748   1.418   1.846  2.0062  0.7505  1.3310
   96PVA    O1316276   2.618   1.550   1.778  0.3392  0.3160  0.2291
   96PVA    H7616277   2.610   1.614   1.705 -1.9884  0.0064  0.1613
   96PVA    C3916278   2.857   1.584   1.788  0.3491 -0.6826  0.7394
   96PVA    H7716279   2.830   1.687   1.760 -0.2691 -1.2295 -0.7777
   96PVA    H7816280   2.936   1.565   1.714 -2.0404 -2.2834 -1.6154
   96PVA    C4016281   2.937   1.568   1.924  1.0142  0.2664 -0.5906
   96PVA    H7916282   2.905   1.636   2.004  1.5490 -0.5232  0.3185
   96PVA    H8016283   2.916   1.468   1.965 -2.4406 -0.2719 -3.2121
   96PVA    C4116284   3.086   1.599   1.920 -0.2554 -1.1473  0.2213
   96PVA    H8116285   3.132   1.547   1.835  0.9538  2.1251 -1.2940
   96PVA    O1416286   3.096   1.733   1.892 -0.6319  0.0290 -0.1901
   96PVA    H8216287   3.007   1.752   1.859 -0.2293  1.9430 -0.2867
   96PVA    C4216288   3.167   1.560   2.042 -0.4660 -0.0280  1.0435
   96PVA    H8316289   3.148   1.621   2.131 -2.3900  3.2133 -1.3747
   96PVA    H8416290   3.130   1.460   2.067  0.1859 -1.0554 -1.7578
   96PVA    C4316291   3.323   1.555   2.014  0.0071  0.4033  0.4406
   96PVA    H8516292   3.367   1.639   1.958  0.0225  0.5259  0.6361
   96PVA    H8616293   3.361   1.467   1.959 -0.5688 -0.4879  1.4288
   96PVA    C4416294   3.402   1.557   2.152 -0.8903  0.4352  0.5707
   96PVA    H8716295   3.406   1.666   2.157 -1.8384  0.4363  2.6268
   96PVA    O1516296   3.317   1.514   2.262 -0.9761  0.6081 -0.8194
   96PVA    H8816297   3.295   1.421   2.244 -1.2631  0.6711 -0.7902
   96PVA    C4516298   3.550   1.484   2.158  0.5854 -1.1195  0.0452
   96PVA    H8916299   3.610   1.519   2.073  3.6187 -1.7472  1.7675
   96PVA    H9016300   3.538   1.375   2.149 -1.6938 -0.8206 -1.3431
   96PVA    C4616301   3.647   1.533   2.280  1.4329  0.0941  0.5130
   96PVA    H9116302   3.662   1.639   2.256  1.8846 -0.0224  0.2559
   96PVA    H9216303   3.588   1.533   2.372 -0.8891  3.7906 -0.7901
   96PVA    C4716304   3.775   1.449   2.292  0.0608  0.3270  0.8898
   96PVA    H9316305   3.838   1.493   2.214  0.6599  0.4982  1.4496
   96PVA    O1616306   3.765   1.307   2.254  0.0672 -0.3699 -0.1463
   96PVA    H9416307   3.758   1.301   2.157  2.5103  1.8000 -0.5843
   96PVA    C4816308   3.862   1.455   2.427 -0.5468  0.8038  0.4958
   96PVA    H9516309   3.964   1.441   2.389 -0.6214 -2.1329  1.1193
   96PVA    H9616310   3.855   1.554   2.472  3.3188  1.1604  0.6228
   96PVA    C4916311   3.854   1.341   2.532  0.6446 -0.7777 -0.2451
   96PVA    H9716312   3.763   1.363   2.590 -0.4957  3.0546 -3.0139
   96PVA    H9816313   3.862   1.247   2.476  0.3946  0.0473 -1.7498
   96PVA    C5016314   3.974   1.338   2.647  0.2340  0.2810  0.8518
   96PVA    H9916315   4.071   1.321   2.597 -0.1883  1.8280 -0.5879
   96PVA    O1716316   4.001   1.457   2.713  0.7226 -0.0823  0.3819
   96PVA   H10016317   3.923   1.485   2.764  1.4060  2.0489  0.3607
   96PVA    C5116318   3.944   1.234   2.755  1.0632  0.8140  0.6191
   96PVA   H10116319   3.904   1.139   2.716  4.4936 -0.5353 -0.0124
   96PVA   H10216320   3.862   1.271   2.818  0.2122  0.9273 -0.5256
   97PVA     C116321   0.279   5.109   0.890 -0.3471 -0.4020  0.6776
   97PVA     H116322   0.360   5.039   0.915 -0.6969 -0.8006  0.7135
   97PVA     H216323   0.299   5.103   0.782 -0.0528  0.9132  0.6436
   97PVA     C216324   0.142   5.063   0.933  1.5287  2.3588 -0.5659
   97PVA     H316325   0.130   5.058   1.042 -2.5619  2.5510 -0.8526
   97PVA     O116326   0.054   5.161   0.882 -0.2093  0.8298  0.3861
   97PVA     H416327   7.728   5.151   0.911 -0.9919  0.8627 -1.8427
   97PVA     C316328   0.128   4.914   0.871  0.8556  0.0580 -0.0130
   97PVA     H516329   0.087   4.848   0.948 -3.3666  0.9972 -1.2139
   97PVA     H616330   0.227   4.869   0.859  0.9269 -0.3047  1.6407
   97PVA     C416331   0.049   4.913   0.735  0.5675  0.6535 -0.4203
   97PVA     H716332   7.709   4.940   0.747  0.2862 -1.1673  1.7892
   97PVA     H816333   0.091   4.991   0.670 -1.3332  0.4656 -1.9579
   97PVA     C516334   0.063   4.772   0.669 -0.0577  1.0270 -0.5581
   97PVA     H916335   0.162   4.729   0.690 -0.2475  1.5141  1.5915
   97PVA     O216336   7.733   4.692   0.741 -0.6248 -0.4329  0.6691
   97PVA    H1016337   7.642   4.709   0.714 -0.9342 -3.1343 -0.3470
   97PVA     C616338   0.022   4.776   0.518 -0.1206  0.4261  0.1398
   97PVA    H1116339   7.688   4.820   0.502 -0.8561 -1.4898 -0.9243
   97PVA    H1216340   0.082   4.859   0.478 -0.8969  1.0725  0.3098
   97PVA     C716341   0.051   4.656   0.428 -0.4335 -0.1498 -0.0017
   97PVA    H1316342   0.015   4.572   0.488  0.0345 -0.8227 -0.6512
   97PVA    H1416343   0.156   4.627   0.415  0.1526  1.4031  0.9145
   97PVA     C816344   7.756   4.661   0.287 -0.1119  0.8625 -0.3177
   97PVA    H1516345   7.652   4.695   0.293 -2.1000 -4.4881  0.2451
   97PVA     O316346   0.076   4.754   0.214  0.7584 -0.3734 -0.3317
   97PVA    H1616347   0.157   4.707   0.186  1.0450 -3.6511  4.6590
   97PVA     C916348   7.746   4.534   0.203  0.2837  0.2779  0.3332
   97PVA    H1716349   0.082   4.494   0.203 -1.2254 -4.0609  0.0819
   97PVA    H1816350   7.721   4.564   0.101  2.8470  1.7502  0.0474
   97PVA    C1016351   7.653   4.433   0.270 -1.7094  0.4956 -0.4548
   97PVA    H1916352   7.686   4.401   0.370 -1.3265  1.6328 -0.1967
   97PVA    H2016353   7.553   4.466   0.299 -1.7043  0.7111 -0.6787
   97PVA    C1116354   7.630   4.308   0.182  0.6728  0.0867 -0.1001
   97PVA    H2116355   7.635   4.329   0.074  1.7076  1.9494  0.2704
   97PVA     O416356   7.738   4.214   0.193  0.1234 -0.3669  0.5024
   97PVA    H2216357   7.739   4.194   0.288  0.4773  2.4875  1.2107
   97PVA    C1216358   7.490   4.247   0.224 -0.1430  0.0476 -0.1522
   97PVA    H2316359   7.506   4.238   0.332  0.4113  1.1346 -0.1269
   97PVA    H2416360   7.412   4.323   0.210  1.4646  1.7838 -0.0867
   97PVA    C1316361   7.444   4.111   0.154  1.1673  1.0899  0.4526
   97PVA    H2516362   7.521   4.085   0.081 -0.3041 -1.0678 -0.4044
   97PVA    H2616363   7.349   4.149   0.113 -0.2627  1.8492  4.0390
   97PVA    C1416364   7.427   3.990   0.248  0.4731  0.7865 -0.3638
   97PVA    H2716365   7.499   3.995   0.331 -0.3535 -2.9700  0.7548
   97PVA     O516366   7.481   3.868   0.184 -0.3519 -0.7244 -0.1955
   97PVA    H2816367   7.394   3.825   0.172 -1.9388  2.1592  0.0227
   97PVA    C1516368   7.280   3.974   0.297 -0.4909 -0.5851  0.2604
   97PVA    H2916369   7.230   3.976   0.200  0.2585 -0.0328 -0.1241
   97PVA    H3016370   7.253   4.050   0.371 -1.7735 -1.3852  0.6490
   97PVA    C1616371   7.249   3.844   0.366 -0.0381 -0.3107 -1.1011
   97PVA    H3116372   7.334   3.803   0.422  0.7666  2.5299 -0.0527
   97PVA    H3216373   7.220   3.767   0.293  0.8332  0.6738 -2.5169
   97PVA    C1716374   7.137   3.845   0.475 -0.3461  0.7691  0.6277
   97PVA    H3316375   7.130   3.944   0.522  2.7229  1.1176  0.5708
   97PVA     O616376   7.175   3.751   0.580  0.3376  0.0600 -0.4010
   97PVA    H3416377   7.262   3.775   0.616  0.4757  0.6607 -1.1221
   97PVA    C1816378   7.001   3.818   0.408  0.6689 -0.6439 -0.1016
   97PVA    H3516379   6.996   3.863   0.308  1.0745  2.6106  1.2229
   97PVA    H3616380   6.994   3.719   0.363  4.5934  0.0448 -2.7125
   97PVA    C1916381   6.879   3.878   0.478 -0.6374  0.1328  0.6238
   97PVA    H3716382   6.799   3.913   0.413 -2.1114 -1.4477  1.5032
   97PVA    H3816383   6.920   3.970   0.521  0.1691 -1.0873  2.6711
   97PVA    C2016384   6.834   3.785   0.585  0.6593  0.4473  0.3229
   97PVA    H3916385   6.809   3.691   0.534 -2.0701  1.7570 -0.9304
   97PVA     O716386   6.929   3.774   0.695 -0.5989  0.3473  0.2770
   97PVA    H4016387   7.006   3.729   0.656 -3.1013 -4.7058  0.2676
   97PVA    C2116388   6.694   3.842   0.635 -0.4314  0.5858  0.6770
   97PVA    H4116389   6.686   3.948   0.662  0.6058  0.4948  1.3786
   97PVA    H4216390   6.677   3.785   0.727 -1.8061 -0.0186  0.0658
   97PVA    C2216391   6.589   3.786   0.521 -0.3879 -0.2212 -0.1337
   97PVA    H4316392   6.563   3.869   0.453 -3.2865 -0.4013  0.6089
   97PVA    H4416393   6.621   3.720   0.440 -1.7234 -3.2725  1.6683
   97PVA    C2316394   6.452   3.717   0.573 -0.6148 -0.1999 -0.9241
   97PVA    H4516395   6.370   3.702   0.502 -3.4254  2.7850  1.3857
   97PVA     O816396   6.390   3.820   0.640  0.3631 -0.8934 -0.0690
   97PVA    H4616397   6.294   3.807   0.646  0.5282 -1.9508  0.7842
   97PVA    C2416398   6.471   3.583   0.653 -1.5365  1.2871  0.7165
   97PVA    H4716399   6.574   3.546   0.650 -2.1538 -0.8866 -4.3857
   97PVA    H4816400   6.451   3.609   0.758  0.2319  3.2005  0.6481
   97PVA    C2516401   6.372   3.466   0.607 -0.9324 -1.1284  0.7720
   97PVA    H4916402   6.393   3.449   0.501 -0.7894  2.3559  0.1199
   97PVA    H5016403   6.271   3.510   0.600 -1.2264 -2.0257 -1.5931
   97PVA    C2616404   6.379   3.329   0.691 -1.1547  0.4739 -0.4679
   97PVA    H5116405   6.486   3.317   0.709 -1.1408 -4.0436 -2.4102
   97PVA     O916406   6.300   3.349   0.803  0.0427 -0.3785 -0.2823
   97PVA    H5216407   6.260   3.438   0.809  0.1008  0.0915 -4.1778
   97PVA    C2716408   6.332   3.205   0.619  0.8729  0.0802 -0.3844
   97PVA    H5316409   6.368   3.189   0.516  0.5578 -1.7359 -0.2422
   97PVA    H5416410   6.224   3.215   0.601  1.1292  0.5466 -1.8409
   97PVA    C2816411   6.361   3.074   0.708 -0.6228 -0.2224  0.6304
   97PVA    H5516412   6.278   3.049   0.775 -0.3869 -2.4212  0.1936
   97PVA    H5616413   6.438   3.096   0.783 -1.7405 -0.5414  1.9131
   97PVA    C2916414   6.409   2.954   0.620 -0.4529 -0.5819  0.2874
   97PVA    H5716415   6.503   2.984   0.571 -0.6538 -3.7428 -2.3755
   97PVA    O1016416   6.330   2.931   0.503  0.1138  1.2295  0.0292
   97PVA    H5816417   6.350   2.853   0.449 -1.9241  1.3305 -0.9540
   97PVA    C3016418   6.412   2.828   0.700 -0.4155  0.0153  0.6106
   97PVA    H5916419   6.414   2.852   0.807  0.8651  1.4253  0.2963
   97PVA    H6016420   6.314   2.782   0.678 -0.3805 -0.4099  1.3170
   97PVA    C3116421   6.528   2.730   0.653 -0.3559  0.1179 -0.1794
   97PVA    H6116422   6.628   2.777   0.654 -0.2641  0.1163  2.8400
   97PVA    H6216423   6.525   2.719   0.544 -0.3449 -0.3887 -0.1314
   97PVA    C3216424   6.511   2.592   0.726  0.2306  0.1397 -0.0649
   97PVA    H6316425   6.409   2.568   0.756  1.3951 -2.1102  2.5387
   97PVA    O1116426   6.568   2.493   0.636 -0.7505  0.6246  1.2316
   97PVA    H6416427   6.533   2.404   0.650 -1.0649  0.5164 -0.0714
   97PVA    C3316428   6.585   2.591   0.860 -0.1101  0.1743  0.5193
   97PVA    H6516429   6.684   2.635   0.844  1.3257 -3.1770 -0.6959
   97PVA    H6616430   6.607   2.487   0.889 -1.0557 -0.1797  0.0002
   97PVA    C3416431   6.516   2.657   0.988  0.0669  0.3012 -0.1635
   97PVA    H6716432   6.517   2.766   0.979 -1.6666  0.3818  0.2111
   97PVA    H6816433   6.413   2.620   0.978 -0.4384  1.6417 -0.0862
   97PVA    C3516434   6.557   2.601   1.124  0.4033  0.4061  0.2892
   97PVA    H6916435   6.517   2.499   1.133 -2.8731  1.5218 -0.0847
   97PVA    O1216436   6.696   2.621   1.134 -0.3799  0.6226  0.0209
   97PVA    H7016437   6.746   2.574   1.203  0.0177 -0.7008 -1.1155
   97PVA    C3616438   6.480   2.673   1.238  0.0966  0.0850  0.7719
   97PVA    H7116439   6.470   2.780   1.213 -1.8551 -0.0471  0.7647
   97PVA    H7216440   6.377   2.634   1.238 -0.4496  1.4352  1.8980
   97PVA    C3716441   6.540   2.661   1.383  0.9299  0.6787  0.8259
   97PVA    H7316442   6.610   2.743   1.403  0.1846  1.0767  1.9225
   97PVA    H7416443   6.576   2.562   1.413 -2.8099 -0.3078  2.6694
   97PVA    C3816444   6.423   2.701   1.482  0.5266  0.3591 -0.0007
   97PVA    H7516445   6.389   2.803   1.461  2.2024  0.4158 -3.1631
   97PVA    O1316446   6.317   2.611   1.478 -0.5990 -0.1546 -0.1316
   97PVA    H7616447   6.254   2.623   1.551  1.3283  1.9219  1.3085
   97PVA    C3916448   6.475   2.685   1.622 -0.5768  0.0955 -0.5792
   97PVA    H7716449   6.570   2.739   1.628  0.6557 -2.1177  2.6873
   97PVA    H7816450   6.498   2.579   1.641  1.7656  1.0091  2.4867
   97PVA    C4016451   6.373   2.754   1.723 -0.3183  0.3689 -0.1163
   97PVA    H7916452   6.373   2.858   1.687  0.9908  0.5731  0.3844
   97PVA    H8016453   6.271   2.721   1.701 -1.0524  1.0381  2.0036
   97PVA    C4116454   6.405   2.761   1.876 -0.1702 -0.6856  0.0737
   97PVA    H8116455   6.477   2.842   1.892  1.2292 -1.8805  0.0200
   97PVA    O1416456   6.467   2.646   1.907 -0.4714  0.1242  0.2089
   97PVA    H8216457   6.519   2.654   1.989  2.0562  0.3166 -1.3224
   97PVA    C4216458   6.281   2.775   1.974  0.4044  0.0309  1.0151
   97PVA    H8316459   6.182   2.746   1.936 -1.0258  3.0769  2.1602
   97PVA    H8416460   6.269   2.878   2.008  2.6423 -0.2477  2.8787
   97PVA    C4316461   6.297   2.691   2.113 -0.0775  0.2120 -0.7529
   97PVA    H8516462   6.393   2.683   2.166  0.1910 -2.4362 -1.4813
   97PVA    H8616463   6.283   2.588   2.078 -1.6478  0.6288 -1.4753
   97PVA    C4416464   6.191   2.739   2.222  0.5571 -0.4562 -0.6577
   97PVA    H8716465   6.091   2.750   2.177 -0.4084 -4.1126  0.2861
   97PVA    O1516466   6.239   2.863   2.259 -0.5766 -0.5754  0.3091
   97PVA    H8816467   6.285   2.855   2.345 -2.6128 -0.4694  1.4940
   97PVA    C4516468   6.184   2.659   2.355  0.5677  0.3624  0.3864
   97PVA    H8916469   6.118   2.705   2.430 -2.0795 -3.9826  1.0297
   97PVA    H9016470   6.289   2.645   2.386 -0.3152 -2.0563  2.6590
   97PVA    C4616471   6.117   2.524   2.344  1.8714  0.2607 -1.0034
   97PVA    H9116472   6.021   2.540   2.293  0.9093  0.0754  0.6587
   97PVA    H9216473   6.167   2.464   2.267  1.8544 -2.3953  0.8951
   97PVA    C4716474   6.089   2.453   2.485  0.0449  0.7025 -0.3186
   97PVA    H9316475   6.046   2.541   2.535  1.7568  1.4150  0.0029
   97PVA    O1616476   6.217   2.407   2.541 -0.6315 -0.2775  0.0042
   97PVA    H9416477   6.195   2.318   2.574 -4.2839  0.6238  0.4439
   97PVA    C4816478   5.973   2.338   2.469  0.4366  0.4523  1.1914
   97PVA    H9516479   5.874   2.384   2.459 -0.5190 -1.6193  0.5219
   97PVA    H9616480   5.999   2.269   2.388 -1.0118  1.6130 -0.3343
   97PVA    C4916481   5.967   2.247   2.595 -0.3901 -0.1465  0.6984
   97PVA    H9716482   5.949   2.315   2.679  2.6146  0.4520  0.9667
   97PVA    H9816483   6.063   2.203   2.623 -1.3358 -1.0142  2.8400
   97PVA    C5016484   5.858   2.136   2.599  0.3623 -0.6860  0.2489
   97PVA    H9916485   5.878   2.077   2.690  1.8411 -0.2487  0.2254
   97PVA    O1716486   5.738   2.217   2.600 -0.4274  0.4965 -0.0730
   97PVA   H10016487   5.762   2.305   2.636  0.5057  0.9555 -1.7382
   97PVA    C5116488   5.864   2.026   2.491 -0.9859  0.6077 -0.7235
   97PVA   H10116489   5.799   2.054   2.407 -1.8873 -0.9606 -0.5853
   97PVA   H10216490   5.970   2.019   2.463 -0.7518  0.0203  0.2541
   98PVA     C116491   4.424   1.991   3.048  0.1528 -0.0623 -0.3823
   98PVA     H116492   4.437   1.903   2.985 -1.7525  0.3501 -1.4274
   98PVA     H216493   4.515   2.048   3.025  2.0367 -2.6320  0.2915
   98PVA     C216494   4.299   2.059   3.006 -0.0544  0.0475 -0.3875
   98PVA     H316495   4.211   2.016   3.055 -1.2143  2.4336 -0.2508
   98PVA     O116496   4.317   2.186   3.066  0.0539  0.5896  0.2283
   98PVA     H416497   4.228   2.208   3.097 -0.5757 -0.4096 -0.8244
   98PVA     C316498   4.282   2.079   2.858 -0.2971  0.1793 -0.4266
   98PVA     H516499   4.226   1.992   2.821  2.4128 -0.9852 -2.0327
   98PVA     H616500   4.383   2.081   2.815  2.0179 -0.0058  4.3606
   98PVA     C416501   4.208   2.205   2.806  0.2599  0.1395  0.8117
   98PVA     H716502   4.113   2.216   2.858 -2.2682  2.8619 -3.7178
   98PVA     H816503   4.249   2.299   2.844 -0.9122  1.4238 -0.9694
   98PVA     C516504   4.152   2.204   2.667 -0.1363 -0.6269 -0.8447
   98PVA     H916505   4.251   2.192   2.622  0.1845  0.9898 -0.6224
   98PVA     O216506   4.084   2.088   2.640  0.8474  0.7499 -0.9007
   98PVA    H1016507   4.034   2.092   2.557  2.6465 -4.4620 -2.6695
   98PVA     C616508   4.067   2.339   2.643 -0.6371 -0.8317 -0.5606
   98PVA    H1116509   4.055   2.345   2.534  0.0325  1.9075 -0.5579
   98PVA    H1216510   4.128   2.424   2.678 -2.9069  1.7296 -2.3888
   98PVA     C716511   3.923   2.349   2.707 -0.9924  0.2871  0.3941
   98PVA    H1316512   3.937   2.364   2.815 -0.4618  5.8158 -0.1260
   98PVA    H1416513   3.895   2.245   2.689  2.1892 -0.4175 -1.3875
   98PVA     C816514   3.832   2.462   2.660  0.8205  0.6965 -0.7442
   98PVA    H1516515   3.897   2.543   2.626  1.0222 -0.0300 -2.1750
   98PVA     O316516   3.768   2.419   2.544 -0.3485 -0.1554  0.0616
   98PVA    H1616517   3.696   2.369   2.586  1.3144 -2.4719  0.3252
   98PVA     C916518   3.723   2.503   2.765  1.3173 -0.2021  1.3539
   98PVA    H1716519   3.643   2.428   2.763  1.8194 -1.3030 -6.3712
   98PVA    H1816520   3.665   2.589   2.729  1.5427 -0.8341 -0.6125
   98PVA    C1016521   3.760   2.558   2.913 -0.2336 -0.5489  0.8497
   98PVA    H1916522   3.825   2.502   2.981 -0.4187  0.8743  2.2557
   98PVA    H2016523   3.818   2.642   2.874 -3.8373  1.5849 -0.4008
   98PVA    C1116524   3.654   2.622   2.988  0.0009  1.6361  0.7144
   98PVA    H2116525   3.635   2.730   2.983 -0.2176  1.5283 -1.9636
   98PVA     O416526   3.529   2.545   2.970  0.6240 -0.3601 -0.7782
   98PVA    H2216527   3.530   2.492   3.051  0.2932 -1.0128 -1.1994
   98PVA    C1216528   3.693   2.639   3.131 -0.5564 -0.8794  0.1080
   98PVA    H2316529   3.600   2.644   3.188  0.0740 -1.1899  1.1888
   98PVA    H2416530   3.748   2.549   3.161 -0.0807 -1.4272 -2.1648
   98PVA    C1316531   3.765   2.771   3.179  0.4779 -0.2205 -1.1674
   98PVA    H2516532   3.694   2.852   3.157 -1.2793 -0.8129  1.7310
   98PVA    H2616533   3.865   2.787   3.136  0.2358 -1.7436 -2.4109
   98PVA    C1416534   3.792   2.772   3.333  0.3694 -0.0934  0.7948
   98PVA    H2716535   3.694   2.763   3.383  0.7796 -2.5040  1.2854
   98PVA     O516536   3.843   2.896   3.377  0.7844  0.6361 -0.0386
   98PVA    H2816537   3.881   2.944   3.301 -0.1924 -2.5529 -2.8060
   98PVA    C1516538   3.869   2.653   3.386  1.2779  0.5785  0.5740
   98PVA    H2916539   3.964   2.658   3.331  3.6278  0.3795  4.2152
   98PVA    H3016540   3.813   2.565   3.352  1.8962  1.4309 -3.0922
   98PVA    C1616541   3.902   2.656   3.534 -0.2536  0.2656 -0.3339
   98PVA    H3116542   3.936   2.758   3.553  0.8759 -0.2366  0.4590
   98PVA    H3216543   3.806   2.639   3.585  1.0902  0.0627  2.2958
   98PVA    C1716544   3.995   2.547   3.602 -0.3957 -0.9745 -0.1602
   98PVA    H3316545   4.096   2.587   3.618 -0.1721 -0.3689 -2.6621
   98PVA     O616546   4.020   2.438   3.504  0.2598 -0.0523 -0.3430
   98PVA    H3416547   3.937   2.397   3.472 -0.0735  0.8930 -0.7107
   98PVA    C1816548   3.957   2.487   3.733  0.1291  0.0384 -0.2890
   98PVA    H3516549   3.921   2.566   3.801 -1.7023  0.2566 -1.4407
   98PVA    H3616550   3.856   2.445   3.731 -0.3830  1.0781  1.4654
   98PVA    C1916551   4.065   2.410   3.802 -0.2864  0.5865 -0.9816
   98PVA    H3716552   4.105   2.338   3.729 -0.4270  2.3348 -2.8971
   98PVA    H3816553   4.018   2.348   3.879  0.9718  0.3641 -0.3784
   98PVA    C2016554   4.186   2.486   3.864 -0.0632  0.1842 -1.1220
   98PVA    H3916555   4.170   2.594   3.876 -2.1193 -0.2734  1.1027
   98PVA     O716556   4.303   2.478   3.791  0.5895 -0.5283  1.6717
   98PVA    H4016557   4.293   2.411   3.721  1.9391 -0.2465  1.1826
   98PVA    C2116558   4.235   2.450   4.007  0.0166  0.7893 -0.6710
   98PVA    H4116559   4.274   2.349   3.992  1.0411  1.0212  0.3062
   98PVA    H4216560   4.157   2.453   4.084  1.6389  3.0726  1.0412
   98PVA    C2216561   4.344   2.557   4.072  0.6347  1.2415 -0.0756
   98PVA    H4316562   4.437   2.564   4.015 -0.7506  0.3444 -2.5851
   98PVA    H4416563   4.310   2.661   4.082  1.6792  1.7021 -1.0234
   98PVA    C2316564   4.400   2.511   4.205  0.8335 -0.2867  0.0672
   98PVA    H4516565   4.412   2.403   4.189 -3.0873 -0.4913 -3.1536
   98PVA     O816566   4.301   2.537   4.300 -0.3042  0.7153  0.5642
   98PVA    H4616567   4.302   2.454   4.351  0.6756 -0.8916 -1.9309
   98PVA    C2416568   4.528   2.574   4.239  0.0360 -0.5895 -0.1661
   98PVA    H4716569   4.558   2.512   4.324  1.7462 -1.7910 -1.5855
   98PVA    H4816570   4.590   2.542   4.154 -0.0560  1.2619 -0.9828
   98PVA    C2516571   4.523   2.725   4.279  0.5968  0.0412  0.1640
   98PVA    H4916572   4.488   2.772   4.186  1.1454  0.2725  0.0703
   98PVA    H5016573   4.459   2.744   4.367 -1.3841 -1.8781 -0.7807
   98PVA    C2616574   4.661   2.782   4.323  0.0032 -0.0074  0.1617
   98PVA    H5116575   4.726   2.737   4.247 -2.6891 -0.8473 -1.8168
   98PVA     O916576   4.688   2.750   4.450 -0.7561  0.0925 -0.6425
   98PVA    H5216577   4.653   2.826   4.499  2.6093  3.5914 -3.1412
   98PVA    C2716578   4.667   2.931   4.312 -0.4765 -0.3226  0.5840
   98PVA    H5316579   4.638   2.975   4.408 -2.1638 -2.1059  0.9397
   98PVA    H5416580   4.601   2.974   4.236  1.2942  4.7547  1.5288
   98PVA    C2816581   4.818   2.972   4.281  0.7107 -0.8619  0.9529
   98PVA    H5516582   4.890   2.936   4.356  0.9081  2.1958  2.3927
   98PVA    H5616583   4.859   2.943   4.184 -3.9130  1.2862 -1.9632
   98PVA    C2916584   4.842   3.119   4.260  0.5164 -0.6221 -0.8100
   98PVA    H5716585   4.792   3.155   4.170 -0.5614 -2.5951 -1.0323
   98PVA    O1016586   4.786   3.186   4.374  0.3399  1.2896  0.7926
   98PVA    H5816587   4.840   3.241   4.433  2.7017  0.0078 -0.0250
   98PVA    C3016588   4.985   3.155   4.268  0.3027 -0.5157 -0.2248
   98PVA    H5916589   4.994   3.264   4.276 -3.0160 -0.1816  0.7124
   98PVA    H6016590   5.017   3.102   4.359 -1.0841 -0.8796  0.0727
   98PVA    C3116591   5.066   3.127   4.138 -0.2940  0.6621  0.0248
   98PVA    H6116592   5.030   3.194   4.058  1.9053  2.2431  0.2642
   98PVA    H6216593   5.052   3.023   4.107 -1.6953 -0.3993  3.6967
   98PVA    C3216594   5.219   3.162   4.142  0.2024 -0.8285 -0.2527
   98PVA    H6316595   5.258   3.108   4.229  1.5953 -1.4542 -1.2307
   98PVA    O1116596   5.242   3.302   4.135  0.1224 -1.0381  0.9251
   98PVA    H6416597   5.176   3.331   4.068 -0.8620  0.2491  2.3769
   98PVA    C3316598   5.284   3.093   4.022 -0.9936 -1.1268  0.0955
   98PVA    H6516599   5.238   3.123   3.926 -0.4212 -2.7412 -0.7193
   98PVA    H6616600   5.266   2.986   4.034  0.8491 -1.3058  1.7312
   98PVA    C3416601   5.439   3.141   3.996  0.3899  0.1134 -1.0085
   98PVA    H6716602   5.453   3.241   3.954 -0.5612  1.8289  2.3484
   98PVA    H6816603   5.491   3.153   4.092  0.2577 -2.9716 -0.4543
   98PVA    C3516604   5.513   3.038   3.897 -1.8615 -0.4050 -0.6243
   98PVA    H6916605   5.438   3.009   3.822 -3.2582  3.1481 -0.8015
   98PVA    O1216606   5.559   2.926   3.982  0.6690 -0.5264  0.5427
   98PVA    H7016607   5.479   2.919   4.036  0.9594 -1.2309  0.8941
   98PVA    C3616608   5.633   3.100   3.828  0.8682 -0.3373 -0.4525
   98PVA    H7116609   5.612   3.205   3.807  1.0983  0.0342  1.0428
   98PVA    H7216610   5.713   3.105   3.904 -0.4869  1.2225  0.9408
   98PVA    C3716611   5.688   3.003   3.723 -0.0713  0.0463  0.6999
   98PVA    H7316612   5.699   2.905   3.769 -2.8633 -0.6288  0.0889
   98PVA    H7416613   5.787   3.048   3.703  0.1444 -0.8006 -0.2015
   98PVA    C3816614   5.603   3.007   3.592  0.3393  0.0154  0.0749
   98PVA    H7516615   5.503   2.970   3.616  1.1473 -0.6320  2.8117
   98PVA    O1316616   5.600   3.152   3.537 -0.4958  0.4613 -0.8149
   98PVA    H7616617   5.565   3.196   3.616 -3.6378 -0.9564 -1.2640
   98PVA    C3916618   5.672   2.900   3.498 -0.1367 -1.2539  0.0854
   98PVA    H7716619   5.721   2.830   3.566 -1.4905  0.7610  3.3381
   98PVA    H7816620   5.754   2.943   3.440 -1.2591 -0.9293 -1.3303
   98PVA    C4016621   5.578   2.833   3.391  0.2893  0.4830 -0.3665
   98PVA    H7916622   5.652   2.759   3.356  0.6277  1.3310 -1.5283
   98PVA    H8016623   5.500   2.765   3.427 -1.0296  1.3771 -1.4353
   98PVA    C4116624   5.538   2.921   3.273 -0.1471 -0.3728  0.3996
   98PVA    H8116625   5.630   2.966   3.233  0.2337  0.5291  2.1771
   98PVA    O1416626   5.458   3.013   3.331  1.6509 -0.4147  0.3673
   98PVA    H8216627   5.501   3.066   3.400 -2.7944  1.9238  1.6886
   98PVA    C4216628   5.465   2.850   3.148  0.4072 -0.8662  0.5857
   98PVA    H8316629   5.360   2.844   3.179  0.0123 -1.8015 -0.8233
   98PVA    H8416630   5.462   2.928   3.071 -3.1198  0.3913  1.7701
   98PVA    C4316631   5.505   2.724   3.107  0.8783  0.4066  0.5471
   98PVA    H8516632   5.612   2.717   3.084  0.6117  1.1630 -1.1226
   98PVA    H8616633   5.479   2.659   3.191 -0.7897 -2.5830 -2.0563
   98PVA    C4416634   5.419   2.680   2.993 -0.0117 -0.8895  0.0694
   98PVA    H8716635   5.313   2.679   3.019 -0.6454  1.9496 -1.9162
   98PVA    O1516636   5.428   2.762   2.885 -0.0872 -0.1450 -0.3116
   98PVA    H8816637   5.353   2.824   2.892 -0.3275 -0.4400 -0.2346
   98PVA    C4516638   5.441   2.542   2.952 -0.2597 -0.0287 -1.3181
   98PVA    H8916639   5.412   2.483   3.040  3.3854  0.1861  0.2068
   98PVA    H9016640   5.549   2.535   2.938 -0.1352  2.9425 -2.6889
   98PVA    C4616641   5.401   2.482   2.819  0.4617  0.5413  0.3871
   98PVA    H9116642   5.298   2.519   2.810  0.5107  2.1105  4.3731
   98PVA    H9216643   5.466   2.515   2.737 -0.2164 -0.7283 -0.7002
   98PVA    C4716644   5.416   2.330   2.824 -0.0144 -0.7467 -0.8662
   98PVA    H9316645   5.375   2.283   2.914  0.3699 -0.6773 -0.6517
   98PVA    O1616646   5.552   2.294   2.861 -0.7736 -0.6311 -0.6277
   98PVA    H9416647   5.601   2.259   2.785  1.2760  2.5626 -0.9841
   98PVA    C4816648   5.379   2.259   2.687  0.1774 -0.2205 -0.3361
   98PVA    H9516649   5.270   2.253   2.696  0.1860 -1.5901 -0.9676
   98PVA    H9616650   5.417   2.306   2.596 -0.0820  0.2462 -0.2064
   98PVA    C4916651   5.428   2.110   2.678  0.4675  0.1761  0.3537
   98PVA    H9716652   5.377   2.035   2.739  2.8280 -0.1377  2.0902
   98PVA    H9816653   5.527   2.097   2.723  1.2521 -1.5272 -1.6959
   98PVA    C5016654   5.429   2.065   2.534  0.0100  0.6864  0.1217
   98PVA    H9916655   5.493   2.125   2.467 -0.5994 -0.8494 -1.9457
   98PVA    O1716656   5.303   2.109   2.490 -0.2459  1.1332  0.8371
   98PVA   H10016657   5.304   2.111   2.392  1.2091  0.4213  0.8238
   98PVA    C5116658   5.458   1.920   2.506 -0.5985  0.9444 -0.6732
   98PVA   H10116659   5.421   1.871   2.597 -1.6202  3.0126  0.0982
   98PVA   H10216660   5.391   1.902   2.421  1.3875  3.1535 -2.8998
   99PVA     C116661   4.791   1.841   3.153  0.4744  0.7508 -0.7090
   99PVA     H116662   4.823   1.736   3.151 -2.9233 -0.4357  0.6905
   99PVA     H216663   4.824   1.874   3.253  1.1179  0.1145 -0.7032
   99PVA     C216664   4.851   1.923   3.033 -0.4738 -1.2649  0.5648
   99PVA     H316665   4.812   2.024   3.051 -2.2380 -1.9081  0.5563
   99PVA     O116666   4.803   1.878   2.901  0.5541  0.5771 -0.3829
   99PVA     H416667   4.783   1.783   2.909  2.4047 -0.0198 -2.1488
   99PVA     C316668   5.006   1.933   3.027 -0.8557  0.2006 -0.2179
   99PVA     H516669   5.049   1.964   3.123  2.0728 -1.8012 -0.7654
   99PVA     H616670   5.033   2.013   2.956 -0.1063 -0.3610 -0.5842
   99PVA     C416671   5.082   1.818   2.957  1.1801  1.8295 -0.3961
   99PVA     H716672   5.030   1.724   2.976  0.1418  2.6234  0.8925
   99PVA     H816673   5.092   1.839   2.850  0.1821  2.4421 -0.3880
   99PVA     C516674   5.230   1.814   2.998 -1.1757 -0.0565  0.7058
   99PVA     H916675   5.270   1.911   3.029  0.7455  0.4449 -2.8100
   99PVA     O216676   5.316   1.793   2.887  0.4756  0.1305 -0.2657
   99PVA    H1016677   5.280   1.714   2.842  0.4323  0.9365 -1.6926
   99PVA     C616678   5.252   1.712   3.112  0.2593  0.0994 -0.6389
   99PVA    H1116679   5.253   1.759   3.211 -1.9786 -2.6779  0.8454
   99PVA    H1216680   5.163   1.648   3.107  0.8837 -0.6854 -2.5627
   99PVA     C716681   5.362   1.614   3.092  0.2655 -0.8472  0.0401
   99PVA    H1316682   5.360   1.561   2.996 -2.6944 -0.2834 -0.3111
   99PVA    H1416683   5.448   1.682   3.095  0.4616 -1.0442  3.8315
   99PVA     C816684   5.384   1.501   3.196  0.5510 -0.6679  0.4094
   99PVA    H1516685   5.293   1.441   3.206  1.7815 -3.2877 -2.4220
   99PVA     O316686   5.479   1.414   3.163  0.5516  0.2370 -0.5325
   99PVA    H1616687   5.514   1.393   3.252  0.8324  0.8742 -0.4859
   99PVA     C916688   5.423   1.568   3.332  0.7596 -0.3202  0.9245
   99PVA    H1716689   5.342   1.625   3.378  1.2649  0.8317  0.4214
   99PVA    H1816690   5.512   1.625   3.303  3.7163 -2.8996  4.0452
   99PVA    C1016691   5.464   1.475   3.448 -0.8893 -0.7595 -0.3149
   99PVA    H1916692   5.405   1.383   3.459  2.4537 -2.8397  1.7948
   99PVA    H2016693   5.569   1.444   3.448 -0.6036  0.1241 -1.7053
   99PVA    C1116694   5.452   1.530   3.584  1.2278  0.9893 -0.4687
   99PVA    H2116695   5.472   1.435   3.635  0.2985  0.0448 -1.7910
   99PVA     O416696   5.319   1.568   3.613 -0.3134 -0.4277 -0.7426
   99PVA    H2216697   5.282   1.484   3.645  0.5170 -1.3377 -2.0821
   99PVA    C1216698   5.548   1.647   3.615  0.1796 -0.6116  0.2254
   99PVA    H2316699   5.652   1.619   3.594  0.3655 -0.2635  0.6774
   99PVA    H2416700   5.523   1.714   3.532  2.0003 -0.3587 -0.1513
   99PVA    C1316701   5.547   1.701   3.767  0.6825 -1.0903 -0.7533
   99PVA    H2516702   5.568   1.626   3.845  0.4457 -2.3129 -1.8245
   99PVA    H2616703   5.440   1.726   3.770  0.6472 -1.0589 -1.9562
   99PVA    C1416704   5.628   1.834   3.791  0.5796 -0.2541 -0.3576
   99PVA    H2716705   5.722   1.812   3.740  1.0696  1.5926 -0.3127
   99PVA     O516706   5.569   1.937   3.717  0.2940 -0.1656 -0.2628
   99PVA    H2816707   5.622   2.014   3.741  4.9249 -3.7423  2.9062
   99PVA    C1516708   5.628   1.863   3.942  0.2711  0.0026 -0.3069
   99PVA    H2916709   5.689   1.791   3.998  0.5548  1.6869  1.6549
   99PVA    H3016710   5.534   1.845   3.995  0.7329 -1.6122  0.0379
   99PVA    C1616711   5.675   2.009   3.975 -0.0884  0.2587 -0.1245
   99PVA    H3116712   5.739   2.045   3.894  0.1292 -2.6245 -1.3744
   99PVA    H3216713   5.575   2.051   3.986 -0.6964 -1.7180  3.7859
   99PVA    C1716714   5.755   2.016   4.105 -0.3749 -0.0466 -0.5373
   99PVA    H3316715   5.850   1.965   4.081  1.3435  0.0702  4.7167
   99PVA     O616716   5.681   1.945   4.208  0.2601 -0.8423  0.9196
   99PVA    H3416717   5.600   1.998   4.193  2.3430  1.6803 -3.7620
   99PVA    C1816718   5.814   2.146   4.161  0.3843  0.5107  0.4926
   99PVA    H3516719   5.859   2.209   4.083 -0.5552  0.8146  0.1756
   99PVA    H3616720   5.736   2.206   4.210  2.4150  1.5753  2.6191
   99PVA    C1916721   5.921   2.128   4.264 -0.6743 -0.1616 -0.5094
   99PVA    H3716722   5.989   2.054   4.221  0.9845  2.1574 -2.1051
   99PVA    H3816723   5.877   2.067   4.345 -0.8228  0.9906  0.3032
   99PVA    C2016724   5.973   2.269   4.328 -1.0484 -0.6977  0.0705
   99PVA    H3916725   5.877   2.292   4.376  0.0191  3.2960  0.6544
   99PVA     O716726   6.000   2.376   4.233 -0.5222 -0.2468  1.1209
   99PVA    H4016727   6.091   2.363   4.199 -0.7994 -0.8102  0.5860
   99PVA    C2116728   6.097   2.262   4.426  1.0078  0.1589 -0.2762
   99PVA    H4116729   6.176   2.240   4.353  1.2330  1.0817 -0.3266
   99PVA    H4216730   6.073   2.172   4.483 -0.5365  0.9823  0.4333
   99PVA    C2216731   6.134   2.397   4.493 -0.9491 -0.2469 -0.3988
   99PVA    H4316732   6.182   2.472   4.429  1.0294  0.2064  1.5092
   99PVA    H4416733   6.043   2.441   4.536 -3.6811 -4.0656 -1.7606
   99PVA    C2316734   6.232   2.388   4.616  1.0420 -0.4259 -0.9641
   99PVA    H4516735   6.214   2.299   4.678 -1.6407  0.9247  0.3707
   99PVA     O816736   6.373   2.383   4.593  0.1932  0.3358 -0.6934
   99PVA    H4616737   6.391   2.431   4.511  2.4020 -2.9415 -2.3543
   99PVA    C2416738   6.211   2.506   4.705 -0.6379 -0.1060 -0.7124
   99PVA    H4716739   6.237   2.602   4.658 -2.0693 -0.1860 -1.7353
   99PVA    H4816740   6.105   2.496   4.733 -0.3405 -2.1665 -0.1555
   99PVA    C2516741   6.295   2.504   4.844  0.8146  0.0131 -0.7273
   99PVA    H4916742   6.394   2.550   4.834  0.3665  1.3894  0.8184
   99PVA    H5016743   6.310   2.400   4.876  4.7536  0.6046 -0.0978
   99PVA    C2616744   6.216   2.587   4.957 -0.6455  0.4675 -0.3346
   99PVA    H5116745   6.111   2.601   4.928 -0.6286  3.2908  0.6669
   99PVA     O916746   6.284   2.712   4.968  0.5706 -0.1367  0.4992
   99PVA    H5216747   6.228   2.776   5.016 -0.4241 -0.1175 -0.6499
   99PVA    C2716748   6.207   2.514   5.096  0.6918 -0.5399  0.0419
   99PVA    H5316749   6.310   2.485   5.120  1.6831  0.8782 -2.0949
   99PVA    H5416750   6.166   2.414   5.076 -2.3653  0.8903 -1.5129
   99PVA    C2816751   6.120   2.580   5.208  0.8648 -0.8837 -0.0081
   99PVA    H5516752   6.145   2.683   5.235 -0.1187 -0.3597 -1.0257
   99PVA    H5616753   6.013   2.563   5.195  0.5753  0.3516  0.5712
   99PVA    C2916754   6.138   2.489   5.334 -0.6869 -0.6360  0.3361
   99PVA    H5716755   6.173   2.390   5.302 -0.7508  0.3940 -3.3567
   99PVA    O1016756   6.260   2.550   5.405 -0.9671  0.4413  0.7049
   99PVA    H5816757   6.334   2.533   5.344 -1.7790 -1.5838  0.1866
   99PVA    C3016758   6.026   2.494   5.431  0.6768  0.1188 -0.7371
   99PVA    H5916759   6.002   2.600   5.444  0.8091  0.7639 -4.6072
   99PVA    H6016760   5.932   2.451   5.395 -0.3543  0.2577  1.6051
   99PVA    C3116761   6.031   2.416   5.563  0.5541 -0.8111  0.1866
   99PVA    H6116762   6.121   2.462   5.606 -0.6641  2.6066 -0.6200
   99PVA    H6216763   6.033   2.308   5.544 -3.1752 -0.6646 -2.0370
   99PVA    C3216764   5.912   2.434   5.664 -0.7914  0.1530  0.9205
   99PVA    H6316765   5.828   2.378   5.619  0.2158 -2.0457  1.6587
   99PVA    O1116766   5.889   2.572   5.663 -0.7926  0.3729 -0.1298
   99PVA    H6416767   5.960   2.634   5.686 -2.2056  1.3710  1.8671
   99PVA    C3316768   5.949   2.377   5.796  0.7329 -0.4973  0.0770
   99PVA    H6516769   6.036   2.441   5.817  0.3451 -0.4331  1.5366
   99PVA    H6616770   5.989   2.275   5.796 -1.1210 -1.2758  1.8316
   99PVA    C3416771   5.860   2.369   5.922 -0.0861  0.4442 -1.1190
   99PVA    H6716772   5.828   2.473   5.932 -4.0401 -0.6192 -0.9156
   99PVA    H6816773   5.777   2.299   5.910  0.9449 -0.9758 -0.3800
   99PVA    C3516774   5.946   2.324   6.054  0.2102 -0.7610 -0.1727
   99PVA    H6916775   6.001   2.412   6.090 -4.6294  2.0283  1.3829
   99PVA    O1216776   6.025   2.204   6.034 -0.4333  0.8445 -0.2840
   99PVA    H7016777   5.989   2.148   6.105 -1.8189  1.3707 -0.5359
   99PVA    C3616778   5.849   2.292   6.168 -0.0302  0.1444  1.7785
   99PVA    H7116779   5.776   2.372   6.189 -1.7401 -1.4234  2.1790
   99PVA    H7216780   5.783   2.211   6.134  3.9870 -2.7634  0.1145
   99PVA    C3716781   5.927   2.246   6.301 -0.3363 -0.6558  1.0064
   99PVA    H7316782   5.918   2.331   6.369 -1.5783  0.5455 -0.5922
   99PVA    H7416783   6.032   2.228   6.275 -0.9300 -1.4557 -1.0982
   99PVA    C3816784   5.888   2.127   6.377  1.1702  0.3196 -0.3565
   99PVA    H7516785   5.779   2.131   6.382  0.9875 -1.8990 -1.3513
   99PVA    O1316786   5.915   2.019   6.292  0.7059 -1.0183  0.4774
   99PVA    H7616787   5.916   1.943   6.353  0.3267 -3.0014 -1.8121
   99PVA    C3916788   5.942   2.107   6.523 -0.1953  0.4554 -0.3854
   99PVA    H7716789   5.913   2.189   6.590  2.7066 -0.3262  2.0691
   99PVA    H7816790   6.051   2.116   6.516 -0.1039 -0.8664 -0.8500
   99PVA    C4016791   5.915   1.967   6.590 -0.3080  0.2684  1.1656
   99PVA    H7916792   5.988   1.892   6.558  0.4632  1.7432 -0.7030
   99PVA    H8016793   5.820   1.928   6.551  1.2452 -4.8982  1.7997
   99PVA    C4116794   5.892   1.965   6.740 -0.3466 -0.3360 -0.5235
   99PVA    H8116795   5.841   2.053   6.779  2.9280  0.7710  1.7168
   99PVA    O1416796   6.027   1.991   6.792  0.0017  0.1665 -0.0748
   99PVA    H8216797   6.036   1.974   6.887 -1.9802 -1.9958 -0.1779
   99PVA    C4216798   5.835   1.835   6.798  0.6124  0.6651 -0.9836
   99PVA    H8316799   5.779   1.780   6.721 -0.5736 -1.0649  1.0399
   99PVA    H8416800   5.910   1.775   6.850 -1.1104  0.0623  0.9265
   99PVA    C4316801   5.741   1.862   6.927  0.8261  0.5492  0.9161
   99PVA    H8516802   5.674   1.949   6.917 -1.3946 -1.2332 -0.6381
   99PVA    H8616803   5.801   1.880   7.017 -2.6378 -0.1137  3.5859
   99PVA    C4416804   5.653   1.752   6.965  0.4701 -0.3965 -0.8675
   99PVA    H8716805   5.576   1.755   6.887 -0.2800 -1.9738 -0.2430
   99PVA    O1516806   5.722   1.626   6.950  0.3812  0.3606 -0.1185
   99PVA    H8816807   5.667   1.598   6.874  4.0137 -1.1150 -2.4504
   99PVA    C4516808   5.592   1.778   7.113 -0.3180  0.3878  0.5762
   99PVA    H8916809   5.645   1.719   7.189  1.2941 -0.9313 -1.4755
   99PVA    H9016810   5.613   1.881   7.146  3.8629  0.0085 -0.2533
   99PVA    C4616811   5.443   1.755   7.121  0.3632 -0.2167  0.3480
   99PVA    H9116812   5.429   1.648   7.101  3.9392 -0.4391 -1.7646
   99PVA    H9216813   5.391   1.812   7.042  3.1799  1.0827 -0.7234
   99PVA    C4716814   5.407   1.791   7.261 -1.2613 -1.0297 -0.4752
   99PVA    H9316815   5.480   1.779   7.342 -2.0526  1.1952  0.6433
   99PVA    O1616816   5.404   1.936   7.252  0.2430  0.6360 -0.6027
   99PVA    H9416817   5.456   1.970   7.327  1.3015  1.8731 -1.8445
   99PVA    C4816818   5.261   1.756   7.309 -0.1030  0.1866 -1.1455
   99PVA    H9516819   5.279   1.648   7.301  1.1754  0.5476 -6.8118
   99PVA    H9616820   5.249   1.797   7.410  3.5034 -2.2934  0.5152
   99PVA    C4916821   5.138   1.792   7.224  0.8742 -0.1489  0.0004
   99PVA    H9716822   5.134   1.752   7.122 -0.4933  2.1120 -0.9305
   99PVA    H9816823   5.133   1.898   7.198  1.7000  0.0126  0.4577
   99PVA    C5016824   5.001   1.754   7.296 -0.5694  0.8512  0.5655
   99PVA    H9916825   4.999   1.817   7.386  0.0145  0.7854  0.6249
   99PVA    O1716826   5.026   1.608   7.312 -0.2380 -0.7048  0.2949
   99PVA   H10016827   4.947   1.553   7.321  0.9135 -1.9946  4.0527
   99PVA    C5116828   4.877   1.756   7.208  1.4530 -0.1623 -0.2619
   99PVA   H10116829   4.894   1.679   7.131  1.9464 -1.7958  1.4211
   99PVA   H10216830   4.872   1.847   7.147 -1.9665  1.2386  1.8186
  100PVA     C116831   5.914   1.688   1.491 -0.2311 -0.2435  0.8578
  100PVA     H116832   5.933   1.779   1.550  1.4229  2.4381 -3.3067
  100PVA     H216833   6.004   1.675   1.429 -1.3434  3.6108 -1.9905
  100PVA     C216834   5.819   1.710   1.379  1.9513 -0.0642 -0.1942
  100PVA     H316835   5.835   1.637   1.298  0.4372 -1.2527  0.5202
  100PVA     O116836   5.686   1.675   1.404  0.6627 -0.1815  0.2296
  100PVA     H416837   5.691   1.593   1.455 -0.4373  2.9867  6.4109
  100PVA     C316838   5.824   1.842   1.305 -1.3337 -0.5749 -0.0047
  100PVA     H516839   5.910   1.835   1.238 -1.2810 -2.7958  0.2073
  100PVA     H616840   5.847   1.920   1.379  1.0783 -1.4854  0.3102
  100PVA     C416841   5.706   1.902   1.225  0.1167  1.7576 -0.4739
  100PVA     H716842   5.698   1.857   1.126 -2.7299  1.0972 -0.0337
  100PVA     H816843   5.610   1.878   1.274  0.9638  1.1581  0.9581
  100PVA     C516844   5.698   2.056   1.192 -1.2504 -0.2348 -0.1155
  100PVA     H916845   5.724   2.113   1.282 -0.9053 -0.6185  0.0345
  100PVA     O216846   5.791   2.099   1.100  0.1531  0.4516  0.5105
  100PVA    H1016847   5.869   2.042   1.112 -0.9008 -0.8632  1.3558
  100PVA     C616848   5.563   2.113   1.138 -0.2503 -0.9234  0.2296
  100PVA    H1116849   5.484   2.102   1.213 -0.0066  0.4924  0.7160
  100PVA    H1216850   5.569   2.223   1.140  0.7765 -0.9401 -0.7956
  100PVA     C716851   5.497   2.084   0.991  0.0896  0.2648 -1.0014
  100PVA    H1316852   5.540   2.000   0.936 -4.7993 -2.4025 -1.2555
  100PVA    H1416853   5.539   2.171   0.938  0.6583 -0.4967 -1.8147
  100PVA     C816854   5.340   2.076   0.970  1.2657 -0.5064  0.5309
  100PVA    H1516855   5.312   2.011   1.054  0.3038  0.7267  1.1963
  100PVA     O316856   5.282   2.198   0.994  0.2082 -0.0258  0.5145
  100PVA    H1616857   5.336   2.258   0.940  1.8623  1.8831  3.9246
  100PVA     C916858   5.290   2.012   0.838  0.3837  0.5459  0.1823
  100PVA    H1716859   5.315   2.076   0.753  0.6008 -2.4604 -2.1744
  100PVA    H1816860   5.366   1.935   0.823  0.2810  0.5208 -0.2218
  100PVA    C1016861   5.143   1.941   0.836  0.1565 -0.2249 -0.0603
  100PVA    H1916862   5.067   2.012   0.803 -3.6432 -4.6168 -1.7687
  100PVA    H2016863   5.136   1.935   0.946  3.2570  4.4356  0.6719
  100PVA    C1116864   5.121   1.804   0.771  0.8641 -0.2056 -0.4332
  100PVA    H2116865   5.029   1.790   0.713 -1.2903 -0.3216  2.7454
  100PVA     O416866   5.233   1.764   0.709  0.6089 -0.2548 -0.4458
  100PVA    H2216867   5.252   1.815   0.628  3.0591  0.5572  0.5260
  100PVA    C1216868   5.095   1.682   0.871 -1.0929  0.5688 -0.7074
  100PVA    H2316869   5.148   1.690   0.966 -2.4204  3.3048 -0.0964
  100PVA    H2416870   4.987   1.692   0.890 -1.0946  0.1824 -0.5029
  100PVA    C1316871   5.133   1.538   0.825 -0.1524  0.4031 -0.6010
  100PVA    H2516872   5.082   1.518   0.730  3.3709 -1.5109 -2.2840
  100PVA    H2616873   5.239   1.532   0.797 -0.2563  0.3287 -0.9909
  100PVA    C1416874   5.113   1.409   0.917  0.6068  0.4157  0.6963
  100PVA    H2716875   5.045   1.445   0.995 -5.2418 -2.5100 -2.4740
  100PVA     O516876   5.238   1.358   0.952 -0.4794  0.6288  0.9673
  100PVA    H2816877   5.226   1.340   1.047  2.2285 -1.8473  0.9855
  100PVA    C1516878   5.031   1.280   0.861  0.0913  0.0327  1.0786
  100PVA    H2916879   5.099   1.193   0.866  1.2736  0.8646  0.0809
  100PVA    H3016880   5.018   1.303   0.755  0.6626 -0.5504  0.8695
  100PVA    C1616881   4.880   1.239   0.903 -0.6544  0.4412  0.9129
  100PVA    H3116882   4.881   1.222   1.011 -0.1270  1.4522  1.0767
  100PVA    H3216883   4.813   1.321   0.875 -1.1471 -1.1325 -3.2987
  100PVA    C1716884   4.808   1.120   0.851  0.5686 -0.1381 -0.5916
  100PVA    H3316885   4.844   1.036   0.911 -1.3966 -0.3404  0.3849
  100PVA     O616886   4.841   1.107   0.707  0.7409 -1.3111 -0.5985
  100PVA    H3416887   4.778   1.048   0.662  0.0286  0.3664 -1.9234
  100PVA    C1816888   4.654   1.094   0.883  0.7469 -0.0613 -0.8045
  100PVA    H3516889   4.627   1.074   0.987  1.6836 -2.2340 -0.9289
  100PVA    H3616890   4.609   1.192   0.864  0.0883 -0.7763 -3.3063
  100PVA    C1916891   4.594   0.952   0.832  0.5570 -0.5391  1.4153
  100PVA    H3716892   4.577   0.979   0.727 -0.3516 -2.5169  1.0161
  100PVA    H3816893   4.661   0.870   0.859 -0.3429 -0.9724  2.3782
  100PVA    C2016894   4.444   0.917   0.872  0.4183 -0.5731 -0.4509
  100PVA    H3916895   4.435   0.869   0.970 -2.2305 -2.6197 -1.5884
  100PVA     O716896   4.370   1.034   0.873  0.1544  0.9928 -0.1634
  100PVA    H4016897   4.408   1.098   0.936  2.8936 -0.4834 -0.1493
  100PVA    C2116898   4.377   0.825   0.767 -0.7810 -0.5000  0.3839
  100PVA    H4116899   4.463   0.762   0.740 -1.3853 -1.1484 -0.0947
  100PVA    H4216900   4.340   0.875   0.677 -3.7878 -0.4841  1.5199
  100PVA    C2216901   4.250   0.731   0.807  0.2201  0.0959  0.6105
  100PVA    H4316902   4.288   0.673   0.893 -1.5725  2.1722  2.9480
  100PVA    H4416903   4.181   0.797   0.862  2.3160  2.2742  0.7782
  100PVA    C2316904   4.170   0.629   0.706  0.1151  0.1735 -1.2218
  100PVA    H4516905   4.117   0.687   0.630  1.0948  1.5907 -0.8718
  100PVA     O816906   4.264   0.578   0.616  0.4630  0.4131 -0.9592
  100PVA    H4616907   4.349   0.559   0.661  1.4867  2.7164 -1.7865
  100PVA    C2416908   4.075   0.520   0.760 -0.6625  0.7980  0.1145
  100PVA    H4716909   4.110   0.416   0.757 -0.4271  0.9024 -2.0603
  100PVA    H4816910   4.070   0.525   0.869 -3.7029 -3.5324  0.4613
  100PVA    C2516911   3.928   0.485   0.695 -0.0894  0.1999 -0.2952
  100PVA    H4916912   3.946   0.430   0.602 -0.2486 -1.2734  0.5011
  100PVA    H5016913   3.875   0.574   0.661 -1.1951 -0.7684 -1.2005
  100PVA    C2616914   3.824   0.400   0.782  0.1315  0.5333  0.2888
  100PVA    H5116915   3.855   0.399   0.888 -0.9742 -2.5058  0.6776
  100PVA     O916916   3.867   0.261   0.729 -0.0004  0.0570 -0.1324
  100PVA    H5216917   3.927   0.206   0.783  0.2577 -1.1803 -1.5986
  100PVA    C2716918   3.672   0.421   0.805  0.0175 -0.7605  0.9310
  100PVA    H5316919   3.626   0.327   0.838 -0.9493  0.1140  2.1869
  100PVA    H5416920   3.641   0.447   0.702  2.3537  4.8048  1.2763
  100PVA    C2816921   3.596   0.534   0.895 -0.0487 -0.6173  0.7228
  100PVA    H5516922   3.620   0.525   1.002 -0.3793 -1.0830  0.7649
  100PVA    H5616923   3.632   0.636   0.877 -1.4422 -0.4652 -1.6429
  100PVA    C2916924   3.439   0.577   0.880  0.2321  0.4506  0.4395
  100PVA    H5716925   3.400   0.623   0.971 -0.2121 -0.9713  0.9887
  100PVA    O1016926   3.357   0.466   0.862  0.1334  0.4889 -0.1869
  100PVA    H5816927   3.278   0.481   0.916  0.3232  1.3469 -0.1304
  100PVA    C3016928   3.393   0.698   0.780  0.0813 -0.6596  0.5097
  100PVA    H5916929   3.384   0.649   0.682  1.0391 -4.0183  1.9608
  100PVA    H6016930   3.482   0.763   0.782  2.1068 -3.2447  3.5316
  100PVA    C3116931   3.258   0.780   0.820 -0.0702 -0.1563 -0.1834
  100PVA    H6116932   3.167   0.731   0.784 -0.6782  3.7166 -5.1920
  100PVA    H6216933   3.246   0.781   0.929  0.6166 -0.2043 -0.1058
  100PVA    C3216934   3.242   0.928   0.774 -1.6932  0.2970 -0.0606
  100PVA    H6316935   3.343   0.971   0.781 -0.4687 -1.6095 -3.4249
  100PVA    O1116936   3.208   0.930   0.634 -0.1155  0.0865 -0.7199
  100PVA    H6416937   3.276   0.875   0.592  0.2067 -0.0841  0.0168
  100PVA    C3316938   3.166   1.043   0.851 -0.3726 -0.1501 -1.0821
  100PVA    H6516939   3.195   1.025   0.955  2.8456  0.2857 -1.7993
  100PVA    H6616940   3.060   1.016   0.846 -0.2614 -0.9524  0.2289
  100PVA    C3416941   3.176   1.192   0.805 -0.6044 -0.0416  0.6024
  100PVA    H6716942   3.226   1.183   0.708  0.9488  2.3815  1.1041
  100PVA    H6816943   3.073   1.207   0.770 -0.2503  2.6962  0.5284
  100PVA    C3516944   3.200   1.329   0.892 -0.5026 -0.6015 -0.8930
  100PVA    H6916945   3.139   1.307   0.981 -1.3826 -0.3721 -1.4211
  100PVA    O1216946   3.155   1.428   0.820  0.8996 -0.1755 -0.4872
  100PVA    H7016947   3.145   1.384   0.734 -4.7859  0.8463 -0.7579
  100PVA    C3616948   3.344   1.381   0.957 -0.6901  0.3650 -0.7769
  100PVA    H7116949   3.319   1.459   1.029 -0.7970 -0.7576  0.4457
  100PVA    H7216950   3.378   1.316   1.039 -2.3881  1.0309  0.5101
  100PVA    C3716951   3.461   1.467   0.883  0.4685  0.1858 -0.0773
  100PVA    H7316952   3.442   1.571   0.911  0.4693  0.2180 -0.1963
  100PVA    H7416953   3.461   1.480   0.774  4.6179  0.5653 -0.1986
  100PVA    C3816954   3.623   1.423   0.907 -0.2746  0.2672  0.3641
  100PVA    H7516955   3.627   1.315   0.887 -1.0870  0.9689 -4.9448
  100PVA    O1316956   3.644   1.435   1.042  0.0222 -0.0692  0.3766
  100PVA    H7616957   3.617   1.528   1.053 -1.7304 -0.2753 -1.4365
  100PVA    C3916958   3.748   1.496   0.835  0.6841  0.2466 -1.3765
  100PVA    H7716959   3.823   1.524   0.910  0.1194 -0.4218 -0.5420
  100PVA    H7816960   3.725   1.592   0.788 -1.8324 -0.0816 -0.9477
  100PVA    C4016961   3.818   1.428   0.714 -0.2496  1.0425  0.5293
  100PVA    H7916962   3.847   1.326   0.741  1.9413  2.1336  2.7165
  100PVA    H8016963   3.734   1.417   0.645 -0.8739  6.1383  0.0994
  100PVA    C4116964   3.939   1.500   0.650 -0.8748 -0.6560 -0.4124
  100PVA    H8116965   3.923   1.608   0.657 -0.4605 -0.5148 -1.4235
  100PVA    O1416966   4.056   1.446   0.726  0.2313 -0.1535  0.1090
  100PVA    H8216967   4.071   1.495   0.809 -0.4833  1.4048 -0.6444
  100PVA    C4216968   3.981   1.499   0.504  0.1852  0.1476  0.5735
  100PVA    H8316969   4.001   1.397   0.468 -1.6083  0.3735 -1.2436
  100PVA    H8416970   3.884   1.506   0.454  0.1164 -0.5229  0.6003
  100PVA    C4316971   4.072   1.612   0.446  0.0458  0.6843  0.2564
  100PVA    H8516972   4.164   1.618   0.505  0.7920 -2.7478 -0.2921
  100PVA    H8616973   4.023   1.705   0.476  2.5465  1.5832  1.8875
  100PVA    C4416974   4.115   1.616   0.296  0.4341  0.5114  0.8248
  100PVA    H8716975   4.098   1.721   0.269 -1.1107 -0.5223 -2.8602
  100PVA    O1516976   4.020   1.550   0.217 -0.2188 -0.2930  1.1349
  100PVA    H8816977   4.017   1.456   0.242 -2.7744 -0.6881 -0.2704
  100PVA    C4516978   4.268   1.578   0.253 -0.1572 -0.2679 -0.0476
  100PVA    H8916979   4.336   1.647   0.303 -0.8272  1.2974 -1.2222
  100PVA    H9016980   4.301   1.485   0.302  1.0468 -0.3037 -0.8703
  100PVA    C4616981   4.302   1.572   0.096  0.3034  0.8889 -0.7089
  100PVA    H9116982   4.248   1.479   0.071 -2.4874  1.4961  2.3688
  100PVA    H9216983   4.252   1.653   0.041  1.3053  1.9589 -0.0818
  100PVA    C4716984   4.449   1.573   0.046  0.3577  0.2187 -0.1755
  100PVA    H9316985   4.490   1.499   0.117 -1.2197 -0.4662  0.0646
  100PVA    O1616986   4.498   1.699   0.070 -0.1780 -0.6784 -0.7500
  100PVA    H9416987   4.499   1.714   0.166  0.1330  0.2069 -0.8831
  100PVA    C4816988   4.492   1.527   8.005 -0.6655 -0.9416  0.7642
  100PVA    H9516989   4.563   1.443   8.003 -0.9220 -1.1588  0.1899
  100PVA    H9616990   4.401   1.493   7.955 -0.6504 -2.5506  1.7595
  100PVA    C4916991   4.559   1.629   7.905  0.1589 -0.0409  0.6534
  100PVA    H9716992   4.663   1.644   7.937 -0.0533  0.6365  1.0611
  100PVA    H9816993   4.513   1.728   7.905  2.1970  0.9690 -0.7970
  100PVA    C5016994   4.579   1.594   7.753  0.5672 -0.6729  0.0271
  100PVA    H9916995   4.483   1.587   7.701 -1.3328 -4.8561  3.4759
  100PVA    O1716996   4.647   1.467   7.740 -0.4746 -0.7234 -0.5283
  100PVA   H10016997   4.618   1.401   7.805  2.2348 -2.8705 -1.2954
  100PVA    C5116998   4.671   1.702   7.681  0.2546  1.5361  0.1448
  100PVA   H10116999   4.679   1.794   7.740  4.5314  0.1379  2.1523
  100PVA   H10217000   4.767   1.651   7.698 -1.7043 -1.8290  1.9719
  101PVA     C117001   6.169   1.334   1.800  0.2518 -0.2895  0.3919
  101PVA     H117002   6.216   1.282   1.716 -2.2616  1.8059 -2.5591
  101PVA     H217003   6.239   1.411   1.836  2.7487 -1.6861 -1.1931
  101PVA     C217004   6.136   1.226   1.904  0.1170  0.4619 -0.9101
  101PVA     H317005   6.053   1.258   1.968  1.7277 -0.3407  1.7480
  101PVA     O117006   6.084   1.107   1.841 -0.2641  0.3248 -0.4397
  101PVA     H417007   6.153   1.063   1.788 -0.2947 -1.4776  0.9227
  101PVA     C317008   6.271   1.192   1.991  0.5970 -0.0533 -0.0251
  101PVA     H517009   6.329   1.282   2.013  2.4475 -0.0309 -4.0618
  101PVA     H617010   6.334   1.141   1.917 -0.0090 -2.3754  0.9756
  101PVA     C417011   6.240   1.105   2.117 -0.2308  1.1028 -0.5076
  101PVA     H717012   6.196   1.176   2.188 -1.8330  0.2327 -0.5673
  101PVA     H817013   6.181   1.016   2.092  3.7227 -1.6213 -1.1730
  101PVA     C517014   6.371   1.045   2.179  0.1388  1.2133  0.6359
  101PVA     H917015   6.405   1.118   2.254  2.8807 -1.5995  2.3505
  101PVA     O217016   6.461   1.019   2.064  0.4281 -1.3021 -0.4176
  101PVA    H1017017   6.428   1.106   2.035 -0.2811 -1.7973 -1.1641
  101PVA     C617018   6.366   0.911   2.255 -0.1398  0.5326 -1.0304
  101PVA    H1117019   6.262   0.877   2.267 -0.0202  0.6221  0.5453
  101PVA    H1217020   6.394   0.939   2.357 -2.4497  1.4669 -0.5893
  101PVA     C717021   6.449   0.778   2.213 -0.4497 -1.0581 -0.3556
  101PVA    H1317022   6.555   0.805   2.216 -0.1149 -2.1891 -1.2086
  101PVA    H1417023   6.451   0.754   2.105  0.2607 -1.7694 -0.1973
  101PVA     C817024   6.413   0.654   2.289  0.1309  0.4148  1.8084
  101PVA    H1517025   6.304   0.644   2.292  0.1543  0.2244  2.1985
  101PVA     O317026   6.459   0.659   2.420 -0.3622  0.1539  0.4243
  101PVA    H1617027   6.555   0.660   2.402 -0.0266 -1.8869  1.7506
  101PVA     C917028   6.460   0.520   2.212 -0.7194 -1.3689 -1.2926
  101PVA    H1717029   6.568   0.516   2.193 -0.5610  0.2740 -0.8792
  101PVA    H1817030   6.413   0.538   2.115 -0.9630  0.9183 -0.7966
  101PVA    C1017031   6.415   0.378   2.265 -0.5665  0.0151  0.8654
  101PVA    H1917032   6.463   0.344   2.358 -0.1450 -6.1303 -1.2146
  101PVA    H2017033   6.310   0.383   2.300 -0.7249 -0.1552  0.4176
  101PVA    C1117034   6.441   0.254   2.170 -1.1073  0.7210  1.3475
  101PVA    H2117035   6.540   0.290   2.138 -1.9947  0.9312 -1.4246
  101PVA     O417036   6.430   0.137   2.251 -0.6745 -0.8473  0.0407
  101PVA    H2217037   6.341   0.102   2.266 -0.5297 -1.2030  0.0931
  101PVA    C1217038   6.379   0.221   2.029  0.6441  0.5301  0.4176
  101PVA    H2317039   6.357   0.319   1.985 -0.4668  0.8586  1.6326
  101PVA    H2417040   6.281   0.176   2.049  1.4307 -1.4591 -0.0335
  101PVA    C1317041   6.442   0.128   1.929 -1.5052  0.0869 -0.4969
  101PVA    H2517042   6.524   0.069   1.974 -1.3884  1.1633  0.7587
  101PVA    H2617043   6.479   0.194   1.850 -1.2122  0.6824  0.1241
  101PVA    C1417044   6.355   0.017   1.868  0.3933 -0.4942  0.7492
  101PVA    H2717045   6.358   7.620   1.941  1.2209 -2.4650 -1.3947
  101PVA     O517046   6.220   0.055   1.868  0.3189  0.6078  0.4503
  101PVA    H2817047   6.225   0.117   1.943 -0.1417 -0.6054  1.5080
  101PVA    C1517048   6.387   7.654   1.716 -1.3125 -0.2472  0.1008
  101PVA    H2917049   6.495   7.651   1.699 -1.0794  1.7845  0.9213
  101PVA    H3017050   6.377   0.045   1.638  0.5442 -5.0169 -5.4951
  101PVA    C1617051   6.327   7.530   1.652 -0.6252  0.6741 -0.3850
  101PVA    H3117052   6.352   7.447   1.720 -2.7423 -0.7505 -1.2339
  101PVA    H3217053   6.220   7.549   1.658 -0.8992 -0.8301 -0.1199
  101PVA    C1717054   6.368   7.497   1.499  0.7439  0.1239  0.4443
  101PVA    H3317055   6.475   7.492   1.473  1.0163  3.5872  0.4556
  101PVA     O617056   6.309   7.593   1.416  0.7633  0.2184 -0.4180
  101PVA    H3417057   6.219   7.623   1.439  0.1220  0.6546 -3.1506
  101PVA    C1817058   6.309   7.359   1.457 -0.0902 -0.4030  0.0042
  101PVA    H3517059   6.201   7.380   1.457  0.1559  1.7137  3.3956
  101PVA    H3617060   6.324   7.288   1.539  0.8283  3.0226  3.0969
  101PVA    C1917061   6.346   7.289   1.326 -1.2733 -0.3588 -0.1790
  101PVA    H3717062   6.449   7.252   1.334  1.9045  6.7570 -0.4803
  101PVA    H3817063   6.378   7.358   1.247  3.7068 -1.0441  0.9168
  101PVA    C2017064   6.247   7.193   1.265  0.3673 -0.3807 -0.0939
  101PVA    H3917065   6.174   7.179   1.345  3.5959 -2.0412  2.8572
  101PVA     O717066   6.291   7.057   1.260 -0.2578 -1.0718 -0.3557
  101PVA    H4017067   6.303   7.040   1.164 -0.5299  4.6112 -1.7158
  101PVA    C2117068   6.180   7.221   1.120 -0.5276 -0.7044 -1.2298
  101PVA    H4117069   6.263   7.238   1.049 -1.4604  1.4672 -1.8627
  101PVA    H4217070   6.147   7.325   1.111 -1.8986 -1.2932 -4.5777
  101PVA    C2217071   6.053   7.134   1.072  0.9499  0.0813  0.2789
  101PVA    H4317072   6.071   7.026   1.062 -1.3524 -0.2676 -0.5654
  101PVA    H4417073   5.984   7.135   1.157 -1.1400 -1.9387 -1.2778
  101PVA    C2317074   5.965   7.191   0.946 -0.6384 -0.2168  0.0286
  101PVA    H4517075   5.886   7.248   0.997  1.3023  0.9801  1.8717
  101PVA     O817076   6.041   7.278   0.859  0.1604 -0.1344  0.5739
  101PVA    H4617077   5.999   7.353   0.814  1.3431  0.9943  1.2452
  101PVA    C2417078   5.893   7.083   0.852 -0.6865 -0.3486 -0.4986
  101PVA    H4717079   5.964   6.999   0.850 -1.3773 -0.9435 -0.2553
  101PVA    H4817080   5.873   7.113   0.749 -0.1809 -0.8916 -0.7636
  101PVA    C2517081   5.754   7.058   0.910  0.4752  0.7271 -0.2194
  101PVA    H4917082   5.703   7.155   0.906  1.1962  1.1686  0.9968
  101PVA    H5017083   5.783   7.028   1.012  1.7337 -1.7114 -1.2150
  101PVA    C2617084   5.665   6.950   0.841  0.4893 -1.0111  0.8954
  101PVA    H5117085   5.723   6.864   0.803 -2.2151 -2.4895 -0.1694
  101PVA     O917086   5.555   6.923   0.929 -0.6067 -1.0438 -0.0340
  101PVA    H5217087   5.585   6.848   0.984 -2.1318 -0.2452  1.9953
  101PVA    C2717088   5.610   7.005   0.705  0.5907 -1.0535  0.1712
  101PVA    H5317089   5.592   6.911   0.651 -2.4679 -0.4047 -0.1625
  101PVA    H5417090   5.693   7.053   0.654 -1.5458  2.4559 -0.3206
  101PVA    C2817091   5.488   7.103   0.726  1.1174 -0.9468  0.0126
  101PVA    H5517092   5.414   7.049   0.787  3.8751 -1.2075  3.4652
  101PVA    H5617093   5.526   7.189   0.781  0.2392  0.2607 -1.2048
  101PVA    C2917094   5.423   7.164   0.603 -0.3586 -0.3928  1.0816
  101PVA    H5717095   5.405   7.081   0.535  0.9849  1.0656 -1.1890
  101PVA    O1017096   5.513   7.252   0.543 -0.8816  1.0945  0.7145
  101PVA    H5817097   5.470   7.311   0.480 -5.2544 -3.2743 -1.0675
  101PVA    C3017098   5.297   7.251   0.654 -0.1099 -0.6630  0.2919
  101PVA    H5917099   5.216   7.184   0.686 -0.3043  0.1146  1.4653
  101PVA    H6017100   5.325   7.288   0.753  2.8121 -0.4684 -0.5256
  101PVA    C3117101   5.244   7.383   0.575  0.9212  0.5473  0.7764
  101PVA    H6117102   5.208   7.356   0.475 -0.8622  2.7153  0.7555
  101PVA    H6217103   5.325   7.456   0.569 -0.8908  2.6798 -5.4242
  101PVA    C3217104   5.118   7.455   0.638  0.1122 -0.3438 -0.6186
  101PVA    H6317105   5.048   7.379   0.673 -0.5122  0.9997  1.1619
  101PVA    O1117106   5.154   7.539   0.747  0.0983  0.5727  0.1829
  101PVA    H6417107   5.247   7.567   0.738  0.6806 -1.2540 -0.0268
  101PVA    C3317108   5.066   7.562   0.539 -0.1674  0.1178  0.9570
  101PVA    H6517109   5.050   7.507   0.445 -0.7693 -3.3096  2.9176
  101PVA    H6617110   4.974   7.616   0.561  0.0931  1.8109 -1.6253
  101PVA    C3417111   5.165   7.671   0.488 -2.2080  0.6490 -0.9380
  101PVA    H6717112   5.203   0.059   0.561  1.2077  0.5775 -2.4671
  101PVA    H6817113   5.264   7.634   0.460 -1.5133  0.1696  1.8354
  101PVA    C3517114   5.116   0.064   0.367  0.2118 -0.0795 -0.8676
  101PVA    H6917115   5.014   0.098   0.393  0.4120  0.1411 -0.3593
  101PVA    O1217116   5.106   7.665   0.253 -0.3373  1.4839 -0.1464
  101PVA    H7017117   5.092   0.033   0.172  2.6535  0.8544 -1.1799
  101PVA    C3617118   5.198   0.197   0.321  0.2098  0.1859 -0.5490
  101PVA    H7117119   5.209   0.259   0.410  0.8924  1.5869 -1.5668
  101PVA    H7217120   5.297   0.159   0.293  0.8273  0.1337  1.5246
  101PVA    C3717121   5.155   0.289   0.203  0.8708 -0.5006  0.4251
  101PVA    H7317122   5.048   0.314   0.203  1.1426  1.1461 -2.5741
  101PVA    H7417123   5.184   0.226   0.118 -0.9855 -0.4811 -0.2818
  101PVA    C3817124   5.231   0.422   0.191 -0.5896  0.4417  0.7541
  101PVA    H7517125   5.210   0.492   0.273  2.2582  3.3451 -0.7551
  101PVA    O1317126   5.367   0.390   0.197  0.0372  0.1703  0.0997
  101PVA    H7617127   5.407   0.358   0.114  0.9720 -0.1544  0.6646
  101PVA    C3917128   5.188   0.488   0.056  0.0376  0.3548  0.3116
  101PVA    H7717129   5.078   0.482   0.056  0.0789 -4.5564  1.5042
  101PVA    H7817130   5.212   0.421   8.069 -1.3037  0.0349  0.1567
  101PVA    C4017131   5.260   0.624   0.014 -0.2231 -1.3017 -0.1489
  101PVA    H7917132   5.221   0.709   0.071  1.1380  1.1184 -2.5506
  101PVA    H8017133   5.370   0.620   0.021 -0.1390  1.0845  0.7118
  101PVA    C4117134   5.229   0.649   7.951 -0.1505 -0.5396 -0.7562
  101PVA    H8117135   5.325   0.615   7.912  0.2695 -0.1508 -0.0906
  101PVA    O1417136   5.117   0.579   7.895 -1.1002  0.4275  0.2861
  101PVA    H8217137   5.160   0.543   7.815  0.4187  2.7369 -0.0224
  101PVA    C4217138   5.235   0.803   7.910 -1.0376  0.6583  0.5903
  101PVA    H8317139   5.152   0.854   7.959 -0.5339 -0.4975  2.7619
  101PVA    H8417140   5.326   0.840   7.959 -0.5825 -0.1252  0.3576
  101PVA    C4317141   5.235   0.823   7.762  0.7044 -0.1862 -0.3202
  101PVA    H8517142   5.151   0.767   7.721  1.0501  2.1140 -4.6807
  101PVA    H8617143   5.330   0.787   7.719  0.7979  2.0187 -2.1115
  101PVA    C4417144   5.224   0.968   7.704  1.1385 -0.4358 -1.1425
  101PVA    H8717145   5.204   1.033   7.790  1.6697  1.2331 -2.2261
  101PVA    O1517146   5.352   1.017   7.656  0.2724  0.6797  0.0390
  101PVA    H8817147   5.323   1.062   7.575 -2.9788  0.3129  0.8411
  101PVA    C4517148   5.102   0.989   7.615  0.0819 -1.0357  0.3651
  101PVA    H8917149   5.015   1.005   7.679 -1.2312  0.1800 -1.6171
  101PVA    H9017150   5.073   0.891   7.575  0.0643 -2.0351  2.6707
  101PVA    C4617151   5.140   1.084   7.495 -0.0311 -0.8678  0.0713
  101PVA    H9117152   5.201   1.169   7.527 -0.5584 -0.3232 -0.3549
  101PVA    H9217153   5.203   1.009   7.446  1.2117 -0.5596  1.1320
  101PVA    C4717154   5.019   1.113   7.414 -0.8535 -0.3905 -0.3854
  101PVA    H9317155   4.941   1.142   7.486 -0.4077  1.5363 -0.6054
  101PVA    O1617156   4.978   0.999   7.345  0.5981 -0.1352 -0.0610
  101PVA    H9417157   4.885   1.000   7.317  1.0895  4.2317 -2.4218
  101PVA    C4817158   5.028   1.235   7.306 -0.3529 -0.7760 -0.5306
  101PVA    H9517159   5.032   1.327   7.366  5.5395 -1.2009  0.3085
  101PVA    H9617160   5.122   1.223   7.251 -0.7288 -0.8233 -1.1707
  101PVA    C4917161   4.918   1.232   7.194 -0.1298  0.5460 -0.2370
  101PVA    H9717162   4.823   1.201   7.239  1.9360  0.3566  4.5108
  101PVA    H9817163   4.936   1.152   7.120 -1.2790 -2.8207  2.8183
  101PVA    C5017164   4.897   1.367   7.121  0.7116 -1.4564  0.2996
  101PVA    H9917165   4.991   1.423   7.118 -0.5906  0.8005 -0.9909
  101PVA    O1717166   4.815   1.436   7.210  1.0279 -0.2086 -0.0818
  101PVA   H10017167   4.724   1.404   7.222  0.9102  0.4987  1.1460
  101PVA    C5117168   4.842   1.365   6.975  0.0854 -0.0835 -0.8308
  101PVA   H10117169   4.734   1.344   6.973  0.3761 -1.6677 -1.3281
  101PVA   H10217170   4.887   1.277   6.927 -1.4685 -2.6743  2.1730
  102PVA     C117171   4.137   2.252   6.848  0.6799  0.4903  0.9273
  102PVA     H117172   4.062   2.288   6.775  0.5441  0.8572  1.2430
  102PVA     H217173   4.158   2.346   6.900  2.5313  0.8187 -0.3016
  102PVA     C217174   4.253   2.207   6.766  0.7446  0.6747 -0.0080
  102PVA     H317175   4.250   2.104   6.730  0.8402  0.5745  0.2664
  102PVA     O117176   4.272   2.274   6.652  0.4002 -0.2844  0.7825
  102PVA     H417177   4.223   2.355   6.674  1.8448  0.7736  0.2473
  102PVA     C317178   4.382   2.247   6.843  0.6401  0.4415  0.6838
  102PVA     H517179   4.470   2.198   6.800  0.9669  0.7359  1.0110
  102PVA     H617180   4.380   2.197   6.940  1.3676  0.0609  0.5055
  102PVA     C417181   4.413   2.393   6.859 -0.7698 -0.4421 -0.9007
  102PVA     H717182   4.340   2.467   6.894 -2.9819 -2.8218 -0.1469
  102PVA     H817183   4.444   2.435   6.762 -1.0597  1.2885 -0.2830
  102PVA     C517184   4.520   2.427   6.969  0.6653 -0.6173 -0.9601
  102PVA     H917185   4.605   2.360   6.953 -0.4221 -1.9158 -1.6285
  102PVA     O217186   4.478   2.411   7.104  0.4295  0.0036  0.0533
  102PVA    H1017187   4.528   2.348   7.159  0.5883 -0.5690 -0.7269
  102PVA     C617188   4.563   2.578   6.949  0.2281  1.0950 -0.8998
  102PVA    H1117189   4.669   2.589   6.977  0.1747 -1.2264  0.4666
  102PVA    H1217190   4.565   2.619   6.847  0.1126  0.6144 -1.0968
  102PVA     C717191   4.471   2.673   7.040 -0.2412 -0.9523 -0.5479
  102PVA    H1317192   4.376   2.618   7.040  1.1862 -3.6168 -0.7190
  102PVA    H1417193   4.461   2.775   7.002  1.8234 -0.8454 -0.8915
  102PVA     C817194   4.536   2.716   7.176 -0.0641 -0.2769  0.3660
  102PVA    H1517195   4.571   2.622   7.221  4.8884  1.0219 -0.2741
  102PVA     O317196   4.660   2.772   7.141 -0.2108  0.3566  0.8789
  102PVA    H1617197   4.633   2.863   7.159 -0.5806  0.5642 -0.5673
  102PVA     C917198   4.466   2.815   7.279 -0.3142  0.6538 -0.1122
  102PVA    H1717199   4.427   2.741   7.349  2.6243 -2.1200 -1.1229
  102PVA    H1817200   4.383   2.876   7.243  0.6081  2.0705  0.0567
  102PVA    C1017201   4.555   2.918   7.359 -0.4848 -0.5673 -0.2619
  102PVA    H1917202   4.610   2.974   7.283 -3.5470  1.5251 -1.1529
  102PVA    H2017203   4.629   2.865   7.420  0.1865  0.9159  0.2547
  102PVA    C1117204   4.497   3.028   7.452  1.3987 -0.8770  0.1701
  102PVA    H2117205   4.422   3.091   7.403  1.0064  1.3016  3.3415
  102PVA     O417206   4.417   2.971   7.551  0.3196  0.2311 -0.2371
  102PVA    H2217207   4.405   2.882   7.516  0.6967  0.4310 -0.8746
  102PVA    C1217208   4.602   3.137   7.503  0.5688 -0.7174  0.0317
  102PVA    H2317209   4.690   3.099   7.555  0.4595  2.3887  2.8147
  102PVA    H2417210   4.657   3.189   7.424  1.1681  2.7097  2.4445
  102PVA    C1317211   4.519   3.247   7.585  0.9745  0.3860 -0.8699
  102PVA    H2517212   4.415   3.254   7.553  0.9591  1.1515 -0.6576
  102PVA    H2617213   4.514   3.209   7.688  1.9923 -1.2095 -1.3581
  102PVA    C1417214   4.584   3.388   7.584  0.2423  1.7979  0.0464
  102PVA    H2717215   4.564   3.412   7.479  0.9726  1.2698 -0.2227
  102PVA     O517216   4.509   3.477   7.672  0.6460  0.0319  0.0633
  102PVA    H2817217   4.517   3.423   7.753  1.0225  1.7938  1.2389
  102PVA    C1517218   4.738   3.402   7.587 -0.0059  0.0954 -0.2975
  102PVA    H2917219   4.784   3.320   7.529  0.1471 -0.8485  1.1166
  102PVA    H3017220   4.774   3.403   7.690  0.9266 -2.6242 -0.5050
  102PVA    C1617221   4.786   3.531   7.528  0.5998 -0.4445 -0.3606
  102PVA    H3117222   4.771   3.544   7.420  0.1533  1.5059 -0.0977
  102PVA    H3217223   4.734   3.603   7.592  1.4502  0.4753 -0.6803
  102PVA    C1717224   4.924   3.562   7.555  0.1764  0.0744  0.5879
  102PVA    H3317225   4.972   3.466   7.534 -1.2231 -0.1574 -1.9494
  102PVA     O617226   4.960   3.588   7.693 -0.4848 -0.1070  0.0203
  102PVA    H3417227   4.885   3.631   7.738  0.4663  1.4188  0.2194
  102PVA    C1817228   4.960   3.689   7.479 -1.0970  0.1360  0.4318
  102PVA    H3517229   4.896   3.771   7.514  0.1730  1.3858 -0.0848
  102PVA    H3617230   4.947   3.694   7.371 -2.6746  2.3256  0.6564
  102PVA    C1917231   5.111   3.725   7.487 -0.7801  1.2693 -0.9133
  102PVA    H3717232   5.165   3.665   7.413 -1.4570  2.0614 -2.0923
  102PVA    H3817233   5.148   3.699   7.587 -1.6698 -3.1566 -1.5112
  102PVA    C2017234   5.127   3.877   7.453 -0.0080  0.1091  0.5864
  102PVA    H3917235   5.032   3.920   7.419  0.0539  0.1859  0.5122
  102PVA     O717236   5.150   3.954   7.572 -0.1744  1.1396  0.3888
  102PVA    H4017237   5.215   4.025   7.556  0.9928 -0.1795 -1.2024
  102PVA    C2117238   5.249   3.913   7.367 -0.1173 -0.2567 -0.3157
  102PVA    H4117239   5.337   3.848   7.364 -0.9126 -1.3394 -1.8654
  102PVA    H4217240   5.272   4.019   7.388  1.2610 -0.9920  2.2748
  102PVA    C2217241   5.195   3.889   7.224 -0.1311  0.5047  0.4074
  102PVA    H4317242   5.161   3.786   7.212  0.3376  0.6163 -2.4236
  102PVA    H4417243   5.116   3.964   7.216 -2.3738 -1.8475 -1.0165
  102PVA    C2317244   5.285   3.920   7.092  0.6119 -0.1253 -0.2768
  102PVA    H4517245   5.375   3.858   7.095  1.4246  1.0511  0.2939
  102PVA     O817246   5.308   4.063   7.078  0.2980 -0.5428  0.7490
  102PVA    H4617247   5.394   4.066   7.032  0.2521  1.1770  0.7068
  102PVA    C2417248   5.213   3.869   6.967  0.4518 -1.6453  0.6289
  102PVA    H4717249   5.227   3.762   6.949  0.6817 -1.1470 -2.7218
  102PVA    H4817250   5.104   3.881   6.968 -0.2162 -3.2116 -5.8398
  102PVA    C2517251   5.262   3.923   6.833 -0.4010 -0.6368 -0.3475
  102PVA    H4917252   5.371   3.916   6.825 -0.1466  1.5357  0.5878
  102PVA    H5017253   5.244   4.031   6.830 -0.2902 -0.5952  0.2625
  102PVA    C2617254   5.172   3.870   6.713  0.0303  0.1898  1.0777
  102PVA    H5117255   5.156   3.762   6.720 -0.7421  0.2684  0.6583
  102PVA     O917256   5.046   3.928   6.723  1.0560 -1.0058 -1.0461
  102PVA    H5217257   4.980   3.880   6.776  0.4252  0.3391 -0.5844
  102PVA    C2717258   5.245   3.933   6.585  0.0071  0.2769 -0.4256
  102PVA    H5317259   5.166   3.951   6.512  1.8780 -2.9718 -3.5776
  102PVA    H5417260   5.279   4.030   6.623  3.0750  0.0523 -2.3064
  102PVA    C2817261   5.365   3.847   6.524  0.0554  0.2967  0.0601
  102PVA    H5517262   5.402   3.900   6.435 -1.4943 -1.3388 -1.6506
  102PVA    H5617263   5.438   3.852   6.605 -2.5119 -0.3332  2.5823
  102PVA    C2917264   5.312   3.704   6.468  0.2151 -0.2155  1.1620
  102PVA    H5717265   5.232   3.747   6.407  0.0865 -0.8184  0.9007
  102PVA    O1017266   5.266   3.608   6.576  0.0205 -0.0053  0.0183
  102PVA    H5817267   5.190   3.557   6.542 -1.9992 -0.2668  4.2335
  102PVA    C3017268   5.420   3.641   6.382  0.3544 -0.5518 -0.2122
  102PVA    H5917269   5.432   3.710   6.298 -1.7058  1.7144  1.2297
  102PVA    H6017270   5.508   3.644   6.449  0.6242 -2.2938 -0.4463
  102PVA    C3117271   5.394   3.508   6.325 -0.2553  0.4165 -0.4419
  102PVA    H6117272   5.303   3.512   6.263 -2.6137 -2.4369  2.4862
  102PVA    H6217273   5.372   3.441   6.409 -0.4910  1.0866  0.0373
  102PVA    C3217274   5.498   3.413   6.248  0.4263 -0.7826 -0.1984
  102PVA    H6317275   5.573   3.401   6.327 -1.9876 -0.8527  2.2273
  102PVA    O1117276   5.547   3.489   6.144  0.3748  0.4712 -0.1610
  102PVA    H6417277   5.643   3.498   6.129  0.5659 -2.2412 -1.2048
  102PVA    C3317278   5.462   3.266   6.213  0.8739 -0.0216 -0.2252
  102PVA    H6517279   5.398   3.226   6.292 -0.2856  1.2447 -0.4951
  102PVA    H6617280   5.403   3.256   6.121 -0.8591 -2.4803  1.0435
  102PVA    C3417281   5.587   3.179   6.204  0.1923  0.1713 -0.0517
  102PVA    H6717282   5.611   3.175   6.097  2.7934 -0.1706  0.4646
  102PVA    H6817283   5.678   3.222   6.250  0.5801 -1.5945  0.8893
  102PVA    C3517284   5.574   3.027   6.242  0.0926 -0.4121 -0.4490
  102PVA    H6917285   5.537   3.029   6.345 -0.5770  0.2017 -0.6901
  102PVA    O1217286   5.483   2.956   6.164 -1.0026  0.3034  1.4976
  102PVA    H7017287   5.406   3.016   6.165  0.4914  2.3356  2.6006
  102PVA    C3617288   5.713   2.953   6.231 -0.3376 -1.4798  0.2817
  102PVA    H7117289   5.750   2.925   6.132  0.1728 -0.5758  0.2090
  102PVA    H7217290   5.782   3.024   6.279 -1.0298 -1.2365  0.9539
  102PVA    C3717291   5.697   2.829   6.319 -0.0284  0.4319  0.2658
  102PVA    H7317292   5.626   2.760   6.270 -4.4251  2.5224  3.0295
  102PVA    H7417293   5.646   2.850   6.414 -5.4805 -3.7031 -1.2059
  102PVA    C3817294   5.828   2.740   6.340 -0.4950 -0.5383 -0.1253
  102PVA    H7517295   5.868   2.728   6.239  4.0934 -0.1181  1.4420
  102PVA    O1317296   5.916   2.809   6.428 -0.2597  0.1358 -1.0541
  102PVA    H7617297   5.995   2.755   6.445 -1.7766 -0.9676  4.1800
  102PVA    C3917298   5.823   2.601   6.411  0.0792  0.3453 -0.6722
  102PVA    H7717299   5.921   2.555   6.433 -0.0532  0.9335  1.2915
  102PVA    H7817300   5.764   2.538   6.343  1.1949 -0.6291 -0.7713
  102PVA    C4017301   5.740   2.602   6.549 -0.9020 -0.0253 -0.8996
  102PVA    H7917302   5.776   2.683   6.614 -1.3891 -0.6744  0.2011
  102PVA    H8017303   5.635   2.625   6.526 -2.0387 -1.8678  1.9071
  102PVA    C4117304   5.750   2.462   6.626  0.4327 -0.8610 -0.4327
  102PVA    H8117305   5.856   2.452   6.651  0.2040 -4.8297 -0.3734
  102PVA    O1417306   5.724   2.361   6.542  0.2793 -0.2839 -0.5600
  102PVA    H8217307   5.627   2.364   6.535  0.3143  0.1524 -0.8609
  102PVA    C4217308   5.653   2.448   6.743  0.6507  0.0548 -1.3263
  102PVA    H8317309   5.550   2.418   6.722  1.3983 -0.2710 -5.5136
  102PVA    H8417310   5.649   2.544   6.796 -1.3908 -0.2521 -0.8608
  102PVA    C4317311   5.714   2.337   6.830 -0.7878  0.2893  0.0805
  102PVA    H8517312   5.823   2.346   6.835 -0.9977  2.5874  2.2282
  102PVA    H8617313   5.716   2.244   6.772  4.4271  0.1243  0.0593
  102PVA    C4417314   5.664   2.319   6.978  0.8084  0.9053  0.4022
  102PVA    H8717315   5.716   2.234   7.023  2.8040  0.5858 -2.3163
  102PVA    O1517316   5.697   2.435   7.052 -0.2694 -0.1423 -0.0932
  102PVA    H8817317   5.676   2.509   6.992  0.4492  0.6037  0.5332
  102PVA    C4517318   5.509   2.301   6.982  0.2062  1.0411 -1.0495
  102PVA    H8917319   5.446   2.380   6.941 -4.3328 -1.4189  0.4393
  102PVA    H9017320   5.490   2.296   7.090  3.2246 -0.9780 -0.4927
  102PVA    C4617321   5.454   2.176   6.922 -0.4037 -0.2920  0.2341
  102PVA    H9117322   5.503   2.150   6.827  4.2772 -4.9371  3.3438
  102PVA    H9217323   5.459   2.097   6.998 -1.6337  0.6611  1.3385
  102PVA    C4717324   5.297   2.173   6.904 -1.3064  0.4188  0.1714
  102PVA    H9317325   5.252   2.229   6.988 -3.8418  2.9639 -2.6048
  102PVA    O1617326   5.256   2.251   6.791  0.6639  0.0998  1.0435
  102PVA    H9417327   5.173   2.235   6.743  0.9561 -0.6995  0.8048
  102PVA    C4817328   5.240   2.033   6.919 -0.2584 -0.0643  0.1036
  102PVA    H9517329   5.269   2.001   7.020 -2.9901 -3.0893  0.1304
  102PVA    H9617330   5.130   2.028   6.921 -0.3910 -2.8784 -3.2100
  102PVA    C4917331   5.292   1.934   6.820  0.3902  0.8261  1.0250
  102PVA    H9717332   5.402   1.939   6.824  0.3930  2.4270  0.1557
  102PVA    H9817333   5.277   1.982   6.722  3.5300  2.7772  1.3407
  102PVA    C5017334   5.221   1.795   6.827 -0.5370 -0.2373 -0.7317
  102PVA    H9917335   5.221   1.769   6.934  0.6988 -1.3776 -0.9748
  102PVA    O1717336   5.314   1.686   6.772  0.2812 -0.5159 -0.1081
  102PVA   H10017337   5.297   1.685   6.676 -5.1067  0.0716  0.5354
  102PVA    C5117338   5.072   1.791   6.759  0.2478  0.1898 -1.0819
  102PVA   H10117339   5.081   1.755   6.656 -2.9172 -2.4666 -0.6179
  102PVA   H10217340   5.053   1.899   6.755 -0.7822  0.2284  2.0170
  103PVA     C117341   3.844   2.365   7.194 -0.6642 -1.0622  0.4401
  103PVA     H117342   3.859   2.469   7.226 -0.4197 -1.6332  2.3137
  103PVA     H217343   3.847   2.300   7.282  1.8861 -0.5669  0.7996
  103PVA     C217344   3.689   2.360   7.145  0.1269 -0.6814  0.5464
  103PVA     H317345   3.692   2.412   7.048 -1.6865  1.9550  1.7634
  103PVA     O117346   3.648   2.225   7.136  0.0064  0.4633  0.3121
  103PVA     H417347   3.593   2.222   7.056  2.7156  0.8774 -1.7286
  103PVA     C317348   3.583   2.440   7.245  0.0353  0.2414  0.0145
  103PVA     H517349   3.602   2.398   7.345 -2.9110 -5.9600 -1.5328
  103PVA     H617350   3.622   2.542   7.259  0.4665 -0.0609  1.1646
  103PVA     C417351   3.429   2.446   7.212 -0.8169  0.6067 -0.1180
  103PVA     H717352   3.436   2.488   7.111  3.9482  2.6531  0.7582
  103PVA     H817353   3.390   2.344   7.219  1.5225 -0.3032  0.4758
  103PVA     C517354   3.333   2.544   7.287  0.9101 -0.3209 -0.4168
  103PVA     H917355   3.350   2.649   7.263  0.1046 -0.8151 -3.5509
  103PVA     O217356   3.339   2.512   7.429 -0.5503  0.1434  0.9668
  103PVA    H1017357   3.300   2.581   7.485 -2.2770 -0.7848  0.9635
  103PVA     C617358   3.185   2.520   7.261  0.0738 -0.5215  0.0828
  103PVA    H1117359   3.199   2.527   7.153  0.3495  2.8431  0.2322
  103PVA    H1217360   3.156   2.414   7.264  1.8954 -1.0410  2.5880
  103PVA     C717361   3.059   2.607   7.310  0.6290 -0.2332 -0.2262
  103PVA    H1317362   3.073   2.698   7.250  1.6946 -0.3866 -0.2260
  103PVA    H1417363   3.054   2.618   7.419  0.9617  3.9908 -0.4634
  103PVA     C817364   2.906   2.565   7.279  0.5083 -0.4794 -0.7496
  103PVA    H1517365   2.905   2.511   7.184  2.2613 -2.4485  0.2574
  103PVA     O317366   2.876   2.464   7.373  0.1703 -0.4231 -0.9984
  103PVA    H1617367   2.932   2.386   7.356  0.3089 -1.3047  2.6703
  103PVA     C917368   2.782   2.666   7.292  0.7992  0.4471  0.5429
  103PVA    H1717369   2.803   2.749   7.223 -6.1895  1.1575 -1.4719
  103PVA    H1817370   2.769   2.702   7.394  2.1385 -1.3251  1.3884
  103PVA    C1017371   2.628   2.616   7.242 -1.1795  0.9762 -0.9056
  103PVA    H1917372   2.659   2.536   7.174  0.8069  0.4969  0.4714
  103PVA    H2017373   2.576   2.582   7.333  0.8548 -0.4138 -0.1889
  103PVA    C1117374   2.532   2.704   7.145  0.6713 -0.8524 -0.5386
  103PVA    H2117375   2.538   2.665   7.042  0.8426 -1.1805 -0.4031
  103PVA     O417376   2.584   2.833   7.139 -0.2471 -0.4608 -0.0573
  103PVA    H2217377   2.579   2.852   7.234  2.5876 -1.1338  0.2950
  103PVA    C1217378   2.374   2.708   7.172  0.7067  0.8339  0.0302
  103PVA    H2317379   2.347   2.636   7.094 -0.1448 -0.8407  1.7662
  103PVA    H2417380   2.374   2.646   7.263  1.0888 -0.5476 -0.8888
  103PVA    C1317381   2.269   2.830   7.163 -0.8770  0.2485  0.5231
  103PVA    H2517382   2.270   2.850   7.055 -1.6260 -1.3040  0.2081
  103PVA    H2617383   2.315   2.907   7.226  0.6935 -1.3387  1.4267
  103PVA    C1417384   2.120   2.803   7.220 -0.2057 -1.6170 -0.0460
  103PVA    H2717385   2.124   2.705   7.270 -0.9997 -0.4881  2.3368
  103PVA     O517386   2.019   2.816   7.118 -0.1579  0.6978  0.8707
  103PVA    H2817387   2.001   2.909   7.095 -2.3301  0.1179 -0.0021
  103PVA    C1517388   2.078   2.910   7.321 -0.2003  0.8642 -0.0644
  103PVA    H2917389   2.157   2.918   7.397  2.1690 -2.2402 -1.9714
  103PVA    H3017390   2.108   3.005   7.273  0.3601  2.2873  2.8616
  103PVA    C1617391   1.943   2.898   7.410  0.0230 -0.1769 -0.5935
  103PVA    H3117392   1.948   2.811   7.477  2.3793  1.7183  1.9031
  103PVA    H3217393   1.856   2.871   7.349  0.6292 -0.6490 -1.2670
  103PVA    C1717394   1.899   3.014   7.514  1.2069  0.5565 -0.7243
  103PVA    H3317395   1.951   3.102   7.473 -0.2844  2.4037  1.1072
  103PVA     O617396   1.973   2.973   7.636 -0.5700  0.0738 -0.3529
  103PVA    H3417397   1.957   2.878   7.651 -0.5268  0.3466  1.6645
  103PVA    C1817398   1.748   3.045   7.544 -0.2936  0.0936  0.2467
  103PVA    H3517399   1.695   3.055   7.449 -0.5084 -3.1284 -0.0595
  103PVA    H3617400   1.704   2.959   7.595 -1.4713  1.7051  2.0865
  103PVA    C1917401   1.699   3.170   7.632 -0.4247 -0.9888 -0.5926
  103PVA    H3717402   1.794   3.224   7.624 -0.9457  0.7332  3.0478
  103PVA    H3817403   1.697   3.147   7.739  2.1359  2.4798  0.3513
  103PVA    C2017404   1.569   3.263   7.588  0.8285  0.4533 -0.0584
  103PVA    H3917405   1.583   3.266   7.479  1.9162 -3.0294 -0.1208
  103PVA     O717406   1.585   3.392   7.642  0.0270  0.0515 -0.0676
  103PVA    H4017407   1.610   3.446   7.565  1.9299 -0.6331 -0.0033
  103PVA    C2117408   1.423   3.207   7.614 -0.4258 -0.6559 -0.3515
  103PVA    H4117409   1.418   3.221   7.723  0.1621  3.4305 -0.6910
  103PVA    H4217410   1.411   3.099   7.599  2.0268 -1.6995  3.6932
  103PVA    C2217411   1.304   3.300   7.587 -0.8607 -0.1923 -0.9237
  103PVA    H4317412   1.324   3.406   7.605  0.4907 -0.7385  1.2060
  103PVA    H4417413   1.291   3.302   7.478  1.4121  1.7829 -1.2528
  103PVA    C2317414   1.159   3.282   7.642 -1.0043  0.2202 -0.3073
  103PVA    H4517415   1.167   3.285   7.751  3.8376 -1.4665 -0.3833
  103PVA     O817416   1.141   3.153   7.587 -0.4152  0.3365  0.2290
  103PVA    H4617417   1.117   3.089   7.656 -3.9268  0.4291 -0.6892
  103PVA    C2417418   1.042   3.382   7.588 -0.1811 -0.6013 -0.0202
  103PVA    H4717419   1.054   3.486   7.620  1.1507 -1.8136  4.0898
  103PVA    H4817420   1.068   3.389   7.482  2.5587 -1.8030  0.4870
  103PVA    C2517421   0.893   3.348   7.625 -0.5035 -0.1723  0.3058
  103PVA    H4917422   0.880   3.351   7.734  0.1332  2.5625  0.3720
  103PVA    H5017423   0.870   3.243   7.602 -0.0698 -0.3961  0.8622
  103PVA    C2617424   0.772   3.436   7.569 -1.5181  0.7477  0.0106
  103PVA    H5117425   0.802   3.476   7.471  2.2408  1.2271  1.1777
  103PVA     O917426   0.783   3.547   7.662 -0.9760  0.6917  0.0956
  103PVA    H5217427   0.740   3.619   7.613  1.4258  1.4319 -1.0713
  103PVA    C2717428   0.624   3.366   7.551 -0.3143 -1.1076 -1.1869
  103PVA    H5317429   0.612   3.309   7.644  4.2941 -0.6633 -0.0245
  103PVA    H5417430   0.643   3.297   7.468  3.7127 -0.2406 -1.2077
  103PVA    C2817431   0.501   3.465   7.510 -1.5853 -0.7390 -0.2173
  103PVA    H5517432   0.479   3.516   7.605  0.6487 -1.9445  1.0502
  103PVA    H5617433   0.538   3.552   7.455 -0.7008 -0.0019  1.4631
  103PVA    C2917434   0.371   3.407   7.460 -0.4565  1.1328  0.3215
  103PVA    H5717435   0.298   3.484   7.489 -2.0899 -0.1736 -0.1479
  103PVA    O1017436   0.312   3.313   7.549 -0.7152  0.6511  0.7975
  103PVA    H5817437   0.336   3.350   7.635 -0.1156  1.9687  0.0890
  103PVA    C3017438   0.342   3.367   7.304 -0.3310 -0.7373 -0.0081
  103PVA    H5917439   0.445   3.362   7.266  0.1297  0.7657  0.9664
  103PVA    H6017440   0.309   3.450   7.240  5.1457  2.0701  0.1805
  103PVA    C3117441   0.263   3.247   7.254 -0.5599 -0.7955 -0.5262
  103PVA    H6117442   0.159   3.279   7.241 -1.4035 -2.6443  1.2202
  103PVA    H6217443   0.251   3.169   7.329  0.3615 -4.7613 -4.0984
  103PVA    C3217444   0.324   3.191   7.112  1.1141 -1.5745 -0.2647
  103PVA    H6317445   0.427   3.229   7.103 -1.1191  5.2997 -4.7227
  103PVA    O1117446   0.250   3.266   7.015  1.4514  0.5378 -0.0840
  103PVA    H6417447   0.211   3.343   7.060  0.8674 -1.9815  4.2888
  103PVA    C3317448   0.305   3.037   7.081  0.6963  0.5238  0.4440
  103PVA    H6517449   0.197   3.039   7.065  0.2092  3.6785  3.0026
  103PVA    H6617450   0.293   2.979   7.174 -1.5050  0.7202  0.3309
  103PVA    C3417451   0.396   2.956   6.976  1.3727  0.3086 -0.0598
  103PVA    H6717452   0.316   2.908   6.919 -0.3132 -1.8075  3.6867
  103PVA    H6817453   0.423   3.030   6.900 -1.7079  0.7956 -0.7882
  103PVA    C3517454   0.502   2.836   6.992  0.8630 -0.4687  0.1421
  103PVA    H6917455   0.464   2.738   6.958  1.6974 -0.2305 -1.5732
  103PVA    O1217456   0.519   2.821   7.125 -0.2879  0.0614 -0.1803
  103PVA    H7017457   0.577   2.891   7.160  1.7635 -1.4731 -0.3974
  103PVA    C3617458   0.636   2.855   6.921  0.0377  0.0199  0.0176
  103PVA    H7117459   0.649   2.964   6.912 -0.8403  0.2323  1.1772
  103PVA    H7217460   0.624   2.823   6.816  0.5549  4.6579 -1.7045
  103PVA    C3717461   0.776   2.801   6.978 -0.4691  0.5593 -0.2669
  103PVA    H7317462   0.776   2.837   7.082  1.1188  2.0007 -0.7293
  103PVA    H7417463   0.765   2.692   6.986 -0.1377  0.6593  3.0365
  103PVA    C3817464   0.915   2.813   6.901  0.7885 -0.3039  0.2134
  103PVA    H7517465   0.905   2.833   6.794  0.2301  6.3388  1.1164
  103PVA    O1317466   0.982   2.687   6.928 -0.3212 -0.0888 -0.7485
  103PVA    H7617467   0.988   2.635   6.846  4.0921 -1.0956 -0.0732
  103PVA    C3917468   1.015   2.926   6.950 -0.5864  0.6550  1.0193
  103PVA    H7717469   1.013   2.897   7.055 -2.4248 -3.9690 -0.0546
  103PVA    H7817470   0.984   3.030   6.933  1.0179  0.9422 -0.5520
  103PVA    C4017471   1.174   2.923   6.911  0.7459 -0.6584  0.5346
  103PVA    H7917472   1.215   2.867   6.996 -3.4933 -1.6993  2.0954
  103PVA    H8017473   1.190   2.843   6.838  0.6546 -0.0841 -0.1298
  103PVA    C4117474   1.258   3.059   6.880  0.1985  0.2656  0.0275
  103PVA    H8117475   1.339   3.059   6.955 -1.2878 -1.1285  1.7327
  103PVA    O1417476   1.304   3.054   6.741  0.5172  0.2829 -0.0326
  103PVA    H8217477   1.377   2.989   6.738  0.9240  0.7102  0.3510
  103PVA    C4217478   1.197   3.202   6.882  0.5212 -0.6214  0.3083
  103PVA    H8317479   1.209   3.253   6.978  2.7393  1.8953 -1.1655
  103PVA    H8417480   1.089   3.207   6.866  0.5862 -1.5201 -0.4664
  103PVA    C4317481   1.268   3.321   6.789 -0.7032  0.1763  0.7772
  103PVA    H8517482   1.310   3.291   6.692  3.3163  1.1394  2.0376
  103PVA    H8617483   1.362   3.347   6.840 -2.1043  1.1573  3.0144
  103PVA    C4417484   1.182   3.448   6.749  0.0869  0.0855 -0.7758
  103PVA    H8717485   1.082   3.408   6.728  0.5793 -0.7384 -1.6962
  103PVA    O1517486   1.159   3.528   6.860 -0.6442  1.3210 -0.1483
  103PVA    H8817487   1.234   3.586   6.882 -0.5101  1.3897 -0.7739
  103PVA    C4517488   1.212   3.548   6.627  0.7166 -0.1194 -0.1104
  103PVA    H8917489   1.264   3.491   6.549  0.9289 -1.1787  0.7847
  103PVA    H9017490   1.299   3.611   6.650 -1.0639  2.2315  0.6218
  103PVA    C4617491   1.114   3.653   6.574  0.9150  0.0917 -0.0399
  103PVA    H9117492   1.037   3.605   6.513 -0.3476  1.0991  0.7310
  103PVA    H9217493   1.063   3.701   6.658 -0.0768  4.3094 -2.7670
  103PVA    C4717494   1.160   3.767   6.469  0.4099 -0.0924 -0.0994
  103PVA    H9317495   1.185   3.850   6.536  2.2233 -2.9601  3.0824
  103PVA    O1617496   1.286   3.727   6.418  0.7383  0.2509 -0.4183
  103PVA    H9417497   1.350   3.728   6.491  0.6560  0.2417 -0.3461
  103PVA    C4817498   1.059   3.822   6.356 -0.6084 -0.3591 -0.4236
  103PVA    H9517499   1.011   3.738   6.306  1.2381 -3.6251  2.7589
  103PVA    H9617500   0.984   3.877   6.413 -1.0973 -1.0342 -0.4059
  103PVA    C4917501   1.117   3.943   6.261 -0.3771 -0.1197  0.0994
  103PVA    H9717502   1.162   4.028   6.314  2.3847 -0.1198 -1.9962
  103PVA    H9817503   1.208   3.912   6.209  1.6160  1.2163  2.5764
  103PVA    C5017504   1.025   4.008   6.147 -0.3611  0.1558  0.2854
  103PVA    H9917505   0.959   3.934   6.099  3.7675 -3.1126 -0.9386
  103PVA    O1717506   0.950   4.113   6.213 -0.6528 -1.0199  0.7311
  103PVA   H10017507   0.861   4.112   6.175 -1.8603 -1.0607  3.3132
  103PVA    C5117508   1.093   4.079   6.024 -0.4039  0.6177 -0.3545
  103PVA   H10117509   1.202   4.083   6.039 -0.2606  2.9955 -1.4274
  103PVA   H10217510   1.090   4.011   5.938 -0.1465 -0.8291  0.7576
  104PVA     C117511   4.025   1.890   6.316 -0.6416 -1.3463 -0.7810
  104PVA     H117512   4.089   1.817   6.265 -0.5701 -1.3393 -0.7019
  104PVA     H217513   3.919   1.865   6.332 -2.0900  3.0865 -2.0341
  104PVA     C217514   4.009   2.035   6.249  0.0327  0.9451  0.4460
  104PVA     H317515   4.109   2.078   6.264  1.5003 -1.2306 -2.1597
  104PVA     O117516   3.897   2.099   6.305  0.5472 -1.1595  1.1249
  104PVA     H417517   3.826   2.047   6.263  0.8194 -0.2984 -0.4770
  104PVA     C317518   3.977   1.996   6.103  0.1568 -1.1445  0.6221
  104PVA     H517519   3.883   1.940   6.097  0.0749 -0.9531  0.0566
  104PVA     H617520   4.050   1.920   6.074 -0.8090 -2.7612  2.1810
  104PVA     C417521   3.960   2.116   6.002  0.0224  1.2726 -0.2811
  104PVA     H717522   3.885   2.179   6.052 -2.8334 -3.6511  2.4897
  104PVA     H817523   4.050   2.173   5.977  1.7527 -1.5459 -0.9366
  104PVA     C517524   3.904   2.068   5.866  1.1236  0.8048  0.1380
  104PVA     H917525   3.965   1.987   5.823  0.9051  0.2352  0.8828
  104PVA     O217526   3.778   2.002   5.881 -0.0945 -0.6147  0.1525
  104PVA    H1017527   3.744   2.057   5.954  4.2798  1.7078  0.7598
  104PVA     C617528   3.908   2.179   5.755  0.1502 -0.4313 -1.1858
  104PVA    H1117529   3.841   2.261   5.787  2.2844  0.3245  1.7653
  104PVA    H1217530   4.003   2.232   5.740 -0.5292  0.4677 -2.4992
  104PVA     C717531   3.858   2.149   5.608  0.1249  0.4338 -0.2428
  104PVA    H1317532   3.756   2.110   5.619 -0.0615  0.5258 -1.5307
  104PVA    H1417533   3.918   2.084   5.543  0.9535  0.8656  0.0713
  104PVA     C817534   3.849   2.290   5.539 -2.0581 -0.0122  0.3837
  104PVA    H1517535   3.838   2.375   5.608 -0.2310  0.9210 -0.4108
  104PVA     O317536   3.731   2.274   5.457  0.0117 -0.4007 -0.3859
  104PVA    H1617537   3.675   2.198   5.482  0.1014  0.1730  1.7171
  104PVA     C917538   3.985   2.326   5.450 -0.1557  1.9799 -0.3303
  104PVA    H1717539   3.979   2.257   5.364 -2.5837  0.2613  1.0750
  104PVA    H1817540   4.072   2.288   5.504  0.0422 -1.1251 -2.5086
  104PVA    C1017541   4.013   2.451   5.374 -0.1590  0.5038  0.0819
  104PVA    H1917542   3.909   2.475   5.347 -0.1342 -1.0631 -1.5839
  104PVA    H2017543   4.044   2.534   5.438 -4.3546  2.1338  0.3251
  104PVA    C1117544   4.113   2.422   5.253  0.4979 -1.2965 -0.1921
  104PVA    H2117545   4.168   2.328   5.270  0.9161 -0.9255  0.5378
  104PVA     O417546   4.041   2.392   5.126 -0.5377 -0.5731  0.4171
  104PVA    H2217547   3.950   2.397   5.160 -1.1921 -1.0619 -1.1614
  104PVA    C1217548   4.213   2.542   5.218 -0.1890  0.1616 -0.3476
  104PVA    H2317549   4.287   2.544   5.300  0.2160 -1.9444 -0.6307
  104PVA    H2417550   4.272   2.518   5.129 -1.4025  2.5515 -1.8824
  104PVA    C1317551   4.149   2.679   5.202  1.5888 -0.6753  0.8375
  104PVA    H2517552   4.083   2.709   5.284 -1.0227 -1.8067 -0.7143
  104PVA    H2617553   4.069   2.667   5.128 -0.7519  2.5555  2.6086
  104PVA    C1417554   4.255   2.779   5.153  0.2552  0.0410  1.2611
  104PVA    H2717555   4.325   2.731   5.084  0.4890  0.3756  1.2646
  104PVA     O517556   4.344   2.827   5.247 -0.3374  1.0810 -0.2409
  104PVA    H2817557   4.438   2.829   5.224 -0.2490  0.8277  0.1083
  104PVA    C1517558   4.189   2.906   5.070 -0.5461  0.3363 -0.6953
  104PVA    H2917559   4.100   2.881   5.010 -1.0759 -3.1531  1.3072
  104PVA    H3017560   4.249   2.957   4.994 -2.3651  0.9102 -1.8119
  104PVA    C1617561   4.141   3.016   5.164 -0.9688 -0.9803  0.6440
  104PVA    H3117562   4.065   2.965   5.226 -1.7852 -1.7513 -0.9327
  104PVA    H3217563   4.215   3.063   5.230  0.6346 -3.1721  0.5029
  104PVA    C1717564   4.069   3.144   5.098 -0.1878 -0.5730 -0.3580
  104PVA    H3317565   3.988   3.112   5.031  1.1361  0.3354 -2.5142
  104PVA     O617566   4.164   3.217   5.023  0.0368 -0.2079 -0.3253
  104PVA    H3417567   4.209   3.156   4.962 -0.9719 -1.1667 -0.1524
  104PVA    C1817568   3.992   3.236   5.199 -0.0883 -0.0858 -0.8660
  104PVA    H3517569   3.937   3.311   5.142  0.3570  0.9346  0.0168
  104PVA    H3617570   3.937   3.156   5.250 -1.5791  0.4532 -1.5881
  104PVA    C1917571   4.084   3.306   5.304  0.9992 -0.6052  0.2755
  104PVA    H3717572   4.156   3.371   5.253  1.8322 -0.4430  1.5988
  104PVA    H3817573   4.146   3.230   5.352  1.0995 -0.3182  0.6080
  104PVA    C2017574   4.013   3.385   5.415  0.5648 -0.0046 -1.7669
  104PVA    H3917575   3.918   3.412   5.367 -0.3913 -1.2448 -0.6565
  104PVA     O717576   3.983   3.298   5.524  0.0577 -0.6204  0.2213
  104PVA    H4017577   3.891   3.321   5.544 -0.3120  0.1151 -2.0866
  104PVA    C2117578   4.097   3.501   5.470  0.4572  0.7460  0.2733
  104PVA    H4117579   4.119   3.570   5.387  1.5632  1.2613  0.9776
  104PVA    H4217580   4.192   3.467   5.514  0.2356  0.4047  0.4923
  104PVA    C2217581   4.004   3.583   5.573 -0.1090  1.3348 -0.4561
  104PVA    H4317582   3.911   3.620   5.528  0.9108  2.5633 -1.6559
  104PVA    H4417583   3.983   3.510   5.652 -0.3086  3.6789  1.8116
  104PVA    C2317584   4.059   3.703   5.643  0.5211  0.0382 -0.3567
  104PVA    H4517585   4.143   3.674   5.707 -0.2512 -0.3632  0.4873
  104PVA     O817586   4.124   3.770   5.535  0.3126 -0.4194 -1.1238
  104PVA    H4617587   4.070   3.827   5.478 -0.7942 -0.7895 -0.4826
  104PVA    C2417588   3.953   3.786   5.739 -0.2469 -0.5618  0.2088
  104PVA    H4717589   3.905   3.715   5.807  0.5069 -0.6692  0.6391
  104PVA    H4817590   4.009   3.856   5.803  0.7196  1.1227 -2.3213
  104PVA    C2517591   3.856   3.865   5.655  0.4508  0.3738 -0.7403
  104PVA    H4917592   3.808   3.791   5.590 -1.3503  0.6993  0.1530
  104PVA    H5017593   3.898   3.936   5.584  0.4962 -0.1250 -1.2141
  104PVA    C2617594   3.750   3.949   5.740 -0.2995  0.3453  0.1136
  104PVA    H5117595   3.806   4.039   5.769  3.3371 -1.7377  0.1817
  104PVA     O917596   3.690   3.875   5.840 -0.0693  0.5535  1.2659
  104PVA    H5217597   3.606   3.913   5.872 -1.8236 -0.1195 -2.0892
  104PVA    C2717598   3.620   3.996   5.659  0.4318 -0.4337 -0.4674
  104PVA    H5317599   3.565   3.909   5.621  2.7832 -2.3186  0.2556
  104PVA    H5417600   3.670   4.023   5.565  1.4485 -2.9857 -0.7289
  104PVA    C2817601   3.515   4.097   5.722  1.2305  0.4335  0.2455
  104PVA    H5517602   3.455   4.050   5.802 -3.1469  0.9432 -2.3725
  104PVA    H5617603   3.570   4.183   5.762  4.0714 -0.8438 -0.6889
  104PVA    C2917604   3.418   4.158   5.614 -0.2533  0.6028 -0.1216
  104PVA    H5717605   3.487   4.185   5.534  3.0372 -1.6437  1.7384
  104PVA    O1017606   3.334   4.056   5.568  0.2753 -0.4122 -0.7399
  104PVA    H5817607   3.392   3.980   5.551  1.2823 -0.0293  0.7327
  104PVA    C3017608   3.333   4.273   5.679 -1.3337 -0.9276  0.1294
  104PVA    H5917609   3.250   4.213   5.720 -2.0671 -3.2803 -4.1117
  104PVA    H6017610   3.384   4.311   5.768 -1.8287  2.9065 -1.0577
  104PVA    C3117611   3.280   4.396   5.592  0.2127 -0.4931 -0.1420
  104PVA    H6117612   3.355   4.423   5.516  0.2368 -1.1456 -0.3528
  104PVA    H6217613   3.275   4.486   5.654  2.3115 -1.4185  1.5082
  104PVA    C3217614   3.148   4.370   5.517 -0.1082  0.3745  0.3717
  104PVA    H6317615   3.072   4.354   5.595 -1.6469  1.9468 -0.7215
  104PVA    O1117616   3.165   4.261   5.430  0.5420 -0.0376 -0.5040
  104PVA    H6417617   3.207   4.179   5.460 -2.1640 -0.6292  2.0579
  104PVA    C3317618   3.094   4.484   5.428  0.2071 -0.3263  0.3499
  104PVA    H6517619   3.179   4.512   5.364 -0.1490  0.7987  0.3475
  104PVA    H6617620   3.071   4.581   5.475  3.3589  0.4685  0.5027
  104PVA    C3417621   2.988   4.450   5.319 -0.8872  1.2468  1.0163
  104PVA    H6717622   3.025   4.388   5.236  2.0979  0.6728  2.6442
  104PVA    H6817623   2.912   4.378   5.353 -3.3138  1.6434 -2.8650
  104PVA    C3517624   2.906   4.565   5.268 -1.0908  0.0428  0.1755
  104PVA    H6917625   2.861   4.626   5.347  2.6954 -2.0580  4.3574
  104PVA    O1217626   2.984   4.654   5.187 -0.1134  0.1660  0.0498
  104PVA    H7017627   3.021   4.718   5.250  1.1156  3.8437 -3.9702
  104PVA    C3617628   2.793   4.526   5.173  0.6537 -0.0942  0.1884
  104PVA    H7117629   2.831   4.463   5.092 -1.5308 -1.0517 -0.1724
  104PVA    H7217630   2.729   4.460   5.233  1.8332 -0.4322  1.1015
  104PVA    C3717631   2.711   4.644   5.115 -0.0319 -0.3062 -0.5920
  104PVA    H7317632   2.764   4.676   5.024 -1.5107 -0.3234 -1.4860
  104PVA    H7417633   2.712   4.729   5.185 -1.6690  0.5511 -1.5461
  104PVA    C3817634   2.567   4.607   5.073 -0.0936 -0.5611  0.5257
  104PVA    H7517635   2.532   4.701   5.028  2.6086  2.0009  3.2588
  104PVA    O1317636   2.553   4.494   5.000  0.8861  0.2974  0.0068
  104PVA    H7617637   2.572   4.421   5.061  0.6324 -0.2838 -0.5947
  104PVA    C3917638   2.467   4.606   5.208 -0.9453 -0.7997 -1.2353
  104PVA    H7717639   2.486   4.711   5.235 -2.0828 -0.1975 -2.6482
  104PVA    H7817640   2.526   4.540   5.273  1.3791  1.8628 -0.4405
  104PVA    C4017641   2.316   4.581   5.198 -0.8764  0.3170  1.0261
  104PVA    H7917642   2.281   4.622   5.102 -2.8274 -1.3557  0.9485
  104PVA    H8017643   2.336   4.474   5.201  2.0454  0.5749 -2.1765
  104PVA    C4117644   2.230   4.624   5.308 -0.8910 -0.2329 -0.3827
  104PVA    H8117645   2.249   4.729   5.334  0.0174 -1.4235  4.9860
  104PVA    O1417646   2.248   4.573   5.434  0.0200 -0.7348 -0.2054
  104PVA    H8217647   2.226   4.479   5.439 -1.0239 -0.4676  0.8258
  104PVA    C4217648   2.082   4.606   5.259 -0.5380  0.4242 -0.4162
  104PVA    H8317649   2.060   4.663   5.167  0.7472 -0.3317 -1.2179
  104PVA    H8417650   2.065   4.501   5.233  0.4811  0.3564 -0.8392
  104PVA    C4317651   1.966   4.645   5.359  0.6150  0.2614  0.1588
  104PVA    H8517652   1.954   4.571   5.439 -3.8843  1.9560  1.3640
  104PVA    H8617653   1.986   4.743   5.405 -1.5032  0.0728  1.6722
  104PVA    C4417654   1.831   4.653   5.289  0.3243  0.0516 -0.5158
  104PVA    H8717655   1.840   4.725   5.207  1.7542  2.4501  1.5688
  104PVA    O1517656   1.801   4.520   5.241 -0.5692  1.0932 -0.7496
  104PVA    H8817657   1.885   4.475   5.227 -0.2200  0.6977  2.0482
  104PVA    C4517658   1.721   4.715   5.383 -0.6612  0.3919  0.3120
  104PVA    H8917659   1.741   4.823   5.391  0.2551  0.3085 -0.6044
  104PVA    H9017660   1.761   4.691   5.482 -0.8775  0.6897  0.4716
  104PVA    C4617661   1.575   4.689   5.341 -0.7761  0.2056  0.5842
  104PVA    H9117662   1.565   4.582   5.321  0.6004 -0.4332  2.9577
  104PVA    H9217663   1.547   4.696   5.235  2.5983 -0.9574 -0.4938
  104PVA    C4717664   1.468   4.752   5.442  0.0203 -0.4302 -0.2233
  104PVA    H9317665   1.442   4.851   5.402 -4.4359 -1.7550 -1.1910
  104PVA    O1617666   1.513   4.793   5.573  0.7210  0.3689  0.7284
  104PVA    H9417667   1.452   4.864   5.598  0.8868  0.5242  0.6994
  104PVA    C4817668   1.331   4.674   5.454  1.2609 -0.3505  0.2699
  104PVA    H9517669   1.280   4.725   5.371  0.8764  0.5202  1.0223
  104PVA    H9617670   1.354   4.571   5.425  2.6289 -0.3057  1.1098
  104PVA    C4917671   1.248   4.694   5.590 -0.7678  0.2141 -1.4193
  104PVA    H9717672   1.224   4.801   5.596 -1.9942  0.0456 -2.6267
  104PVA    H9817673   1.315   4.689   5.677 -1.3253 -0.5688 -1.0210
  104PVA    C5017674   1.122   4.615   5.623  0.9865 -0.6429 -0.3964
  104PVA    H9917675   1.040   4.672   5.668 -0.0154 -1.7115 -0.8052
  104PVA    O1717676   1.076   4.573   5.489  0.2078 -0.8654  0.1974
  104PVA   H10017677   1.008   4.638   5.465 -0.1719 -0.4636  2.1604
  104PVA    C5117678   1.129   4.477   5.701  0.6882  0.3095 -0.7029
  104PVA   H10117679   1.039   4.426   5.667  0.3054 -0.3138  1.1278
  104PVA   H10217680   1.216   4.421   5.665  0.9344  2.1967 -3.3626
  105PVA     C117681   3.873   1.763   6.767  0.0893  0.4458 -1.3099
  105PVA     H117682   3.782   1.802   6.721 -0.2328  0.0933 -0.9746
  105PVA     H217683   3.912   1.839   6.836  3.6786 -1.4291 -1.0186
  105PVA     C217684   3.822   1.639   6.847 -0.2609  0.1110  1.0586
  105PVA     H317685   3.895   1.599   6.918  0.7989 -2.8398 -1.4378
  105PVA     O117686   3.811   1.542   6.740 -0.3546  0.0572  0.1956
  105PVA     H417687   3.905   1.515   6.734  0.0176  0.6788  2.4082
  105PVA     C317688   3.679   1.629   6.908  0.3305 -0.2244 -0.1138
  105PVA     H517689   3.599   1.625   6.834 -2.7038  1.4121  2.7982
  105PVA     H617690   3.650   1.708   6.979 -2.9433  0.6654 -2.2547
  105PVA     C417691   3.660   1.500   7.001  0.8914 -0.6076  0.1771
  105PVA     H717692   3.672   1.531   7.106  1.8912  1.1505 -0.4103
  105PVA     H817693   3.694   1.406   6.958 -2.3251 -2.0016  0.4068
  105PVA     C517694   3.526   1.441   7.004  0.8558  0.5356 -0.3548
  105PVA     H917695   3.545   1.337   7.031 -0.1454  0.6104  0.7413
  105PVA     O217696   3.455   1.435   6.875  0.4508 -0.0436  0.5541
  105PVA    H1017697   3.415   1.347   6.866 -0.3609  0.2783  0.9251
  105PVA     C617698   3.425   1.496   7.117 -1.0719 -0.7640  0.6119
  105PVA    H1117699   3.467   1.548   7.204 -5.2571 -0.7068  2.8090
  105PVA    H1217700   3.373   1.587   7.086  1.3499  0.1745 -0.9579
  105PVA     C717701   3.312   1.392   7.172  0.5348 -0.7874  0.1727
  105PVA    H1317702   3.347   1.300   7.221 -2.2451 -1.6849  0.6645
  105PVA    H1417703   3.272   1.337   7.085 -3.7056  0.0680  1.3821
  105PVA     C817704   3.187   1.452   7.245 -0.3000  0.4469 -0.8002
  105PVA    H1517705   3.126   1.478   7.158  0.0339 -1.3674 -1.6231
  105PVA     O317706   3.205   1.550   7.347 -1.0420  0.3015  0.1355
  105PVA    H1617707   3.227   1.514   7.434  0.7636  1.1537  0.0818
  105PVA     C917708   3.104   1.351   7.324 -0.9590 -0.1046 -0.7544
  105PVA    H1717709   3.111   1.251   7.281  4.6973 -1.6645  2.6941
  105PVA    H1817710   3.134   1.337   7.429 -2.6012 -2.9648 -0.5659
  105PVA    C1017711   2.959   1.417   7.327 -0.6733  0.7814  0.9146
  105PVA    H1917712   2.964   1.525   7.346 -5.4959  1.4571 -0.4768
  105PVA    H2017713   2.911   1.423   7.228 -0.0118  0.8479  0.5890
  105PVA    C1117714   2.851   1.354   7.408  1.1922 -0.1024  0.1286
  105PVA    H2117715   2.875   1.351   7.515 -0.6506 -0.2516  0.5617
  105PVA     O417716   2.799   1.224   7.372 -0.1721  0.1873 -0.5019
  105PVA    H2217717   2.775   1.234   7.278  2.5625  0.8914 -1.2400
  105PVA    C1217718   2.731   1.455   7.418  0.1754  0.2396 -0.0542
  105PVA    H2317719   2.712   1.494   7.317 -1.5041 -2.0162 -0.6854
  105PVA    H2417720   2.759   1.540   7.482 -0.8097 -0.9351  2.0294
  105PVA    C1317721   2.591   1.397   7.463  0.1429 -0.6487  0.8664
  105PVA    H2517722   2.600   1.325   7.545  1.2267 -3.1289 -1.2972
  105PVA    H2617723   2.542   1.336   7.387 -0.3368  1.9395 -1.0346
  105PVA    C1417724   2.494   1.501   7.508  0.2634 -0.5253 -0.3863
  105PVA    H2717725   2.545   1.562   7.584  0.3213  0.4494 -1.1849
  105PVA     O517726   2.455   1.573   7.395  0.3323 -0.0173 -0.3689
  105PVA    H2817727   2.487   1.662   7.417  1.6378 -1.2038  3.2180
  105PVA    C1517728   2.367   1.423   7.559 -1.1359 -0.0411 -1.0676
  105PVA    H2917729   2.401   1.326   7.597  0.1864  0.5418 -0.6899
  105PVA    H3017730   2.290   1.420   7.481  0.6538  1.3433 -3.0345
  105PVA    C1617731   2.314   1.515   7.683  0.3066  0.8107  0.1930
  105PVA    H3117732   2.289   1.443   7.762 -0.9675 -3.4956 -3.6939
  105PVA    H3217733   2.380   1.590   7.728 -0.0170  0.6110  1.0262
  105PVA    C1717734   2.193   1.608   7.645 -0.0865 -0.1342 -1.1770
  105PVA    H3317735   2.164   1.563   7.549  0.7141 -0.5542 -1.2285
  105PVA     O617736   2.228   1.752   7.638 -0.4928  0.2284 -0.0345
  105PVA    H3417737   2.157   1.810   7.605  0.0063  1.8591  1.6203
  105PVA    C1817738   2.081   1.586   7.755 -0.7609  1.9837 -1.0006
  105PVA    H3517739   2.051   1.481   7.755  2.1108  1.0811 -0.2480
  105PVA    H3617740   2.133   1.605   7.850 -0.3127  0.9382 -1.0312
  105PVA    C1917741   1.958   1.667   7.719 -0.0106 -0.8524 -0.7281
  105PVA    H3717742   1.985   1.760   7.771  1.1769 -0.3869 -2.1160
  105PVA    H3817743   1.945   1.698   7.614  2.1703  1.7744 -0.3132
  105PVA    C2017744   1.823   1.609   7.795  0.3782  0.2987 -0.3647
  105PVA    H3917745   1.834   1.500   7.796  0.7796  0.2148 -3.4440
  105PVA     O717746   1.829   1.648   7.929  0.1602 -0.3927  0.4618
  105PVA    H4017747   1.850   1.743   7.937 -0.9611 -0.2274  1.9828
  105PVA    C2117748   1.687   1.643   7.747  0.1580 -0.5435  0.3178
  105PVA    H4117749   1.687   1.644   7.637  0.1716  1.2528  0.3044
  105PVA    H4217750   1.672   1.748   7.772  0.9121 -0.1279 -0.8939
  105PVA    C2217751   1.578   1.552   7.808  1.1004  1.4059 -0.1643
  105PVA    H4317752   1.617   1.522   7.907 -0.6031 -2.0400 -0.3843
  105PVA    H4417753   1.491   1.618   7.811  1.1622  1.4605  0.8467
  105PVA    C2317754   1.536   1.424   7.732 -1.1384  0.0885  1.0926
  105PVA    H4517755   1.489   1.450   7.636 -1.4986  1.8875  1.7124
  105PVA     O817756   1.650   1.348   7.703 -0.1198  0.0769  0.2987
  105PVA    H4617757   1.609   1.264   7.676 -0.9403  0.1077  1.3769
  105PVA    C2417758   1.420   1.360   7.793 -0.1553  0.8831 -0.1013
  105PVA    H4717759   1.326   1.395   7.747 -1.2213 -0.9997  0.5053
  105PVA    H4817760   1.400   1.389   7.897 -3.5613  0.9226 -0.6573
  105PVA    C2517761   1.416   1.204   7.803  0.7591  0.0899 -0.3889
  105PVA    H4917762   1.505   1.184   7.864  0.9265  3.3613  0.6226
  105PVA    H5017763   1.441   1.168   7.702  1.6226  4.1059 -1.8151
  105PVA    C2617764   1.293   1.147   7.878 -0.5775 -0.0758 -0.0052
  105PVA    H5117765   1.303   1.202   7.972  2.4982 -1.2707  0.4759
  105PVA     O917766   1.176   1.187   7.801 -0.5160 -0.3982  0.5679
  105PVA    H5217767   1.171   1.138   7.717 -0.3514  2.2699 -1.1496
  105PVA    C2717768   1.259   0.993   7.898 -1.2282  1.1469  0.5566
  105PVA    H5317769   1.312   0.967   7.991  0.0888  1.4418 -0.1019
  105PVA    H5417770   1.305   0.955   7.807 -0.1878  2.7167  0.4000
  105PVA    C2817771   1.101   0.953   7.909  0.6395 -0.1324 -0.3017
  105PVA    H5517772   1.044   1.028   7.964 -0.9399 -1.7811  0.4140
  105PVA    H5617773   1.040   0.941   7.818  0.8822  1.8667 -0.7624
  105PVA    C2917774   1.060   0.822   7.980  0.0379  0.0831 -0.2873
  105PVA    H5717775   1.120   0.744   7.930  2.1750  0.6907  1.1562
  105PVA    O1017776   1.087   0.831   0.024 -0.4130 -1.1063  0.1354
  105PVA    H5817777   1.049   0.908   0.069  0.4586 -1.7660  2.0909
  105PVA    C3017778   0.905   0.792   7.958  0.1068 -0.0938 -0.1113
  105PVA    H5917779   0.876   0.826   7.858  1.4014 -0.8291 -0.7642
  105PVA    H6017780   0.854   0.846   8.038 -2.5727  3.0148 -3.6017
  105PVA    C3117781   0.849   0.640   7.952  1.0427 -0.1207  0.2686
  105PVA    H6117782   0.888   0.589   7.863  2.7807  1.5613 -0.0033
  105PVA    H6217783   0.911   0.577   8.017 -1.7405 -0.7331  2.5346
  105PVA    C3217784   0.691   0.633   7.961  0.9987 -0.1464 -0.8980
  105PVA    H6317785   0.647   0.688   7.877 -1.3175 -2.3351 -1.2460
  105PVA    O1117786   0.633   0.685   8.076 -0.4418  0.4189 -0.7110
  105PVA    H6417787   0.693   0.713   0.051 -1.2495  3.8962 -1.2027
  105PVA    C3317788   0.611   0.497   7.944 -0.6483 -0.4334  0.6483
  105PVA    H6517789   0.653   0.415   8.004  1.2958  3.0816  4.6145
  105PVA    H6617790   0.633   0.473   7.839 -1.1442 -0.3685  0.5258
  105PVA    C3417791   0.453   0.497   7.956 -1.2971  0.9512 -1.7477
  105PVA    H6717792   0.420   0.411   7.897  2.9766 -1.2780 -1.3218
  105PVA    H6817793   0.406   0.589   7.921 -1.3145  2.0011  0.8291
  105PVA    C3517794   0.390   0.496   0.003 -0.3774 -0.1242  1.0994
  105PVA    H6917795   0.451   0.572   0.053  1.6531  0.5617 -2.1654
  105PVA    O1217796   0.420   0.374   0.066  0.0514  0.5877  0.7199
  105PVA    H7017797   0.504   0.404   0.105 -0.3908  1.5400  0.9748
  105PVA    C3617798   0.240   0.534   0.011  0.3326  0.6786 -1.0850
  105PVA    H7117799   0.241   0.641   8.083 -0.7365  0.7012 -1.0882
  105PVA    H7217800   0.190   0.478   8.028  1.7122 -0.0263 -1.4858
  105PVA    C3717801   0.168   0.511   0.144  1.0634 -0.4129  0.1021
  105PVA    H7317802   0.178   0.407   0.176 -2.3646 -0.9333 -0.0892
  105PVA    H7417803   0.217   0.566   0.226  0.3372  0.1426  0.1832
  105PVA    C3817804   0.023   0.547   0.167 -0.1275 -0.3756  0.3988
  105PVA    H7517805   7.730   0.482   0.100  0.0280 -1.3163  1.1477
  105PVA    O1317806   7.761   0.681   0.130 -0.3329 -0.6352 -0.1222
  105PVA    H7617807   0.004   0.697   0.034 -0.7053  0.2844 -0.0208
  105PVA    C3917808   7.749   0.528   0.318  0.8402 -0.6624 -0.8331
  105PVA    H7717809   0.076   0.558   0.370  0.4883 -1.2726  0.1649
  105PVA    H7817810   7.726   0.422   0.333  1.5438 -0.9135 -1.4560
  105PVA    C4017811   7.632   0.599   0.362  0.7062 -0.9236 -0.6614
  105PVA    H7917812   7.549   0.603   0.292 -2.8910 -0.6257  3.2081
  105PVA    H8017813   7.660   0.698   0.401 -0.0345 -1.4144  1.2289
  105PVA    C4117814   7.571   0.520   0.488 -0.8519  0.0770 -0.1489
  105PVA    H8117815   7.654   0.469   0.539 -1.0008 -1.2934 -1.2035
  105PVA    O1417816   7.493   0.417   0.435  1.1842  0.5197 -0.1488
  105PVA    H8217817   7.493   0.406   0.339 -0.9427 -1.9180  0.0108
  105PVA    C4217818   7.494   0.597   0.600  0.0824 -0.4093 -0.1815
  105PVA    H8317819   7.440   0.684   0.560 -1.7483 -1.1490  0.5937
  105PVA    H8417820   7.417   0.537   0.649  1.4213  0.0705  2.6954
  105PVA    C4317821   7.590   0.656   0.714  0.0914 -0.3142  0.4235
  105PVA    H8517822   7.659   0.731   0.675  0.5863 -0.2880  1.3432
  105PVA    H8617823   7.659   0.576   0.744  2.4625  0.3593 -2.7436
  105PVA    C4417824   7.503   0.701   0.829  0.2743  0.0170  0.9461
  105PVA    H8717825   7.399   0.676   0.805  1.0081 -0.0682 -2.6701
  105PVA    O1517826   7.501   0.846   0.853  1.1143 -0.0821  0.9122
  105PVA    H8817827   7.428   0.867   0.793  1.3135  1.2821  1.1218
  105PVA    C4517828   7.525   0.600   0.949 -0.4840 -1.1560  0.5187
  105PVA    H8917829   7.463   0.520   0.906 -4.5595  1.5484  0.7543
  105PVA    H9017830   7.628   0.566   0.967  0.1490  0.8453  0.9505
  105PVA    C4617831   7.475   0.643   1.086 -0.8146 -1.7817 -0.8870
  105PVA    H9117832   7.372   0.678   1.080  0.7917  3.7530 -1.7590
  105PVA    H9217833   7.519   0.740   1.112 -0.3685 -1.5740 -2.2996
  105PVA    C4717834   7.489   0.532   1.200  0.1602 -0.9530 -0.2800
  105PVA    H9317835   7.439   0.447   1.153  1.3143 -3.9125  3.3843
  105PVA    O1617836   7.632   0.492   1.204 -0.1069  0.4455 -0.6535
  105PVA    H9417837   7.669   0.567   1.154 -1.9552  0.5046 -2.0333
  105PVA    C4817838   7.435   0.570   1.339 -0.0443  0.1768  0.0048
  105PVA    H9517839   7.510   0.643   1.374 -3.7531  2.3761  4.5757
  105PVA    H9617840   7.341   0.627   1.338 -0.7585 -0.9125  1.1002
  105PVA    C4917841   7.424   0.458   1.447 -0.1703  0.0705 -0.4882
  105PVA    H9717842   7.397   0.378   1.377 -3.2960  1.9755 -1.6667
  105PVA    H9817843   7.339   0.473   1.516  1.0559 -0.6496  1.2520
  105PVA    C5017844   7.554   0.425   1.531 -0.2283  0.4424 -0.4418
  105PVA    H9917845   7.582   0.504   1.601  1.1463 -0.3436 -0.0627
  105PVA    O1717846   7.671   0.396   1.442 -0.2764 -0.2333  0.6385
  105PVA   H10017847   7.638   0.400   1.350  0.5615 -5.1919 -0.1992
  105PVA    C5117848   7.537   0.300   1.615 -0.8896  0.0394 -0.8295
  105PVA   H10117849   7.443   0.308   1.671 -1.4815  4.5158 -2.1110
  105PVA   H10217850   7.542   0.220   1.540  1.5913 -0.5827 -0.1004
  106PVA     C117851   0.226   4.583   5.471 -0.0667 -1.3516 -0.6476
  106PVA     H117852   0.189   4.648   5.551  1.7497 -1.4366  0.3143
  106PVA     H217853   0.178   4.491   5.507  0.7598 -1.7406 -0.5136
  106PVA     C217854   0.185   4.625   5.332 -0.2113 -0.5008 -1.1434
  106PVA     H317855   0.209   4.537   5.271  3.8590 -1.0121  0.8997
  106PVA     O117856   0.263   4.733   5.303 -0.1384  0.3385  0.3951
  106PVA     H417857   0.257   4.734   5.205  1.3131  5.0098  0.1473
  106PVA     C317858   0.035   4.660   5.318 -0.4687 -0.1299  1.1660
  106PVA     H517859   0.009   4.706   5.413  0.8293 -0.8527  1.8992
  106PVA     H617860   7.739   4.571   5.297 -1.9336  0.9678  0.6839
  106PVA     C417861   0.004   4.751   5.194 -0.7143  1.3088  0.3454
  106PVA     H717862   0.076   4.834   5.190  1.2717 -0.0954  3.4616
  106PVA     H817863   0.035   4.689   5.108 -1.8760  1.1378  0.0390
  106PVA     C517864   7.629   4.813   5.175 -0.9528  0.5258 -0.9336
  106PVA     H917865   7.605   4.856   5.273 -0.8639 -1.2653 -0.0790
  106PVA     O217866   7.515   4.716   5.164 -0.6107  0.1635  0.1308
  106PVA    H1017867   7.475   4.703   5.251 -0.9504 -0.9681 -0.1864
  106PVA     C617868   7.602   4.931   5.069 -0.8086  0.3959 -1.1027
  106PVA    H1117869   7.677   5.010   5.076  1.4430 -1.0305 -5.2143
  106PVA    H1217870   7.643   4.896   4.973  3.4733  0.0618  0.6210
  106PVA     C717871   7.458   5.000   5.058  0.6024 -0.3059  0.5230
  106PVA    H1317872   7.428   5.040   5.156 -0.2911 -2.5512  1.2337
  106PVA    H1417873   7.381   4.926   5.031 -2.6836  3.6516 -2.0375
  106PVA     C817874   7.440   5.126   4.964  0.6168 -0.0654 -0.4816
  106PVA    H1517875   7.424   5.079   4.867  0.3316  0.4929 -0.7113
  106PVA     O317876   7.542   5.221   4.970  0.3541 -0.4122  0.3455
  106PVA    H1617877   7.537   5.290   4.901  4.3074  1.8746  1.9494
  106PVA     C917878   7.308   5.192   5.015  0.0620 -0.0592 -0.2757
  106PVA    H1717879   7.333   5.244   5.109 -3.3361  0.2066  0.6168
  106PVA    H1817880   7.236   5.115   5.047  0.3741 -0.3515 -0.2710
  106PVA    C1017881   7.236   5.263   4.899  0.1078  0.7776  0.5988
  106PVA    H1917882   7.309   5.322   4.844 -0.3702  5.7294  4.5421
  106PVA    H2017883   7.197   5.190   4.827  0.9099  0.4105  0.5255
  106PVA    C1117884   7.119   5.355   4.937  0.0917 -0.3448  0.0396
  106PVA    H2117885   7.056   5.295   5.004  1.6116  0.1935  2.0824
  106PVA     O417886   7.183   5.458   5.016 -1.1991  0.7157  0.2664
  106PVA    H2217887   7.125   5.537   5.012  0.7196  2.2748  1.3832
  106PVA    C1217888   7.030   5.412   4.825  1.3788 -1.4785  0.1892
  106PVA    H2317889   7.086   5.447   4.737  0.8131  2.6101  1.2280
  106PVA    H2417890   6.956   5.337   4.794  0.6956  0.4517 -3.4376
  106PVA    C1317891   6.947   5.533   4.862  0.8141  0.1087 -0.0273
  106PVA    H2517892   7.000   5.628   4.853  0.8786  0.0880  0.1402
  106PVA    H2617893   6.907   5.517   4.963 -0.6471  0.2485 -0.5533
  106PVA    C1417894   6.801   5.544   4.779  0.6561  0.4111  0.0072
  106PVA    H2717895   6.818   5.510   4.676  1.3624 -0.7712  0.4957
  106PVA     O517896   6.700   5.460   4.836  0.0755  1.4705  0.3003
  106PVA    H2817897   6.721   5.459   4.931 -0.2050 -1.3200  0.4232
  106PVA    C1517898   6.731   5.685   4.784  0.9867 -0.9067 -0.5693
  106PVA    H2917899   6.820   5.750   4.785  0.1797  0.2284 -1.0572
  106PVA    H3017900   6.663   5.704   4.867  1.4833  1.8127 -0.6903
  106PVA    C1617901   6.649   5.699   4.653 -0.1340  0.2738 -0.2170
  106PVA    H3117902   6.724   5.683   4.574  1.1828  0.8837  0.8638
  106PVA    H3217903   6.577   5.618   4.638  3.8087 -3.6561 -0.2971
  106PVA    C1717904   6.580   5.826   4.629  0.1207 -0.8237 -0.4613
  106PVA    H3317905   6.480   5.798   4.666  0.5243 -2.0259 -0.2388
  106PVA     O617906   6.621   5.939   4.708  0.6570 -0.9117 -0.5876
  106PVA    H3417907   6.541   5.994   4.712 -0.7919 -3.0035  0.8046
  106PVA    C1817908   6.588   5.877   4.475  0.2430 -0.3411  0.4498
  106PVA    H3517909   6.690   5.875   4.435 -0.6216 -0.6255 -1.9210
  106PVA    H3617910   6.528   5.805   4.418  0.3534 -0.0491 -0.0430
  106PVA    C1917911   6.526   6.016   4.447  0.1432 -0.4727 -0.1524
  106PVA    H3717912   6.544   6.083   4.532  3.7484 -2.3636  0.8104
  106PVA    H3817913   6.420   5.990   4.450 -0.7171  2.2171 -2.4694
  106PVA    C2017914   6.528   6.099   4.323 -0.2283 -0.5115 -0.7406
  106PVA    H3917915   6.607   6.061   4.256  0.6113  1.6681 -1.0803
  106PVA     O717916   6.409   6.099   4.249 -0.4753 -0.0755 -0.0279
  106PVA    H4017917   6.389   6.004   4.241 -1.0118 -0.0957  1.3915
  106PVA    C2117918   6.589   6.247   4.349  0.5302  0.6730  0.5943
  106PVA    H4117919   6.533   6.280   4.437 -0.4936 -4.2783  2.1131
  106PVA    H4217920   6.690   6.229   4.387  0.2356 -2.4290  0.1246
  106PVA    C2217921   6.584   6.343   4.225 -0.5814  0.6741  1.0944
  106PVA    H4317922   6.647   6.287   4.154 -0.0248  5.1058 -2.3985
  106PVA    H4417923   6.477   6.351   4.203  0.1197  1.4252 -2.7422
  106PVA    C2317924   6.659   6.473   4.240  0.0578  0.5690  0.2924
  106PVA    H4517925   6.756   6.440   4.279  0.3440  1.6006  0.5084
  106PVA     O817926   6.589   6.556   4.336  0.7404 -0.1853  0.4266
  106PVA    H4617927   6.546   6.487   4.388  3.8974 -2.6623  0.0671
  106PVA    C2417928   6.681   6.558   4.101  0.0361 -0.0418  0.4179
  106PVA    H4717929   6.773   6.617   4.102 -0.8327  1.4352 -1.4903
  106PVA    H4817930   6.709   6.495   4.016  3.5983  0.7236  0.8755
  106PVA    C2517931   6.590   6.678   4.058 -0.4447  0.3952 -0.4909
  106PVA    H4917932   6.485   6.648   4.046  0.3517 -2.0942 -1.9185
  106PVA    H5017933   6.588   6.737   4.151 -2.7063 -3.3287  2.1191
  106PVA    C2617934   6.619   6.769   3.941 -0.2032  0.5449  0.6519
  106PVA    H5117935   6.696   6.836   3.979  4.2529 -0.2981 -5.4900
  106PVA     O917936   6.673   6.698   3.822  0.1029 -0.3374  0.1383
  106PVA    H5217937   6.606   6.634   3.793 -1.6972  2.5458 -2.6555
  106PVA    C2717938   6.499   6.842   3.880 -0.3774 -0.8624  0.4053
  106PVA    H5317939   6.431   6.860   3.964  2.5733 -3.4989  3.6783
  106PVA    H5417940   6.457   6.774   3.805  0.3678 -0.3768 -0.4749
  106PVA    C2817941   6.542   6.968   3.792  0.7068 -0.4873  0.3667
  106PVA    H5517942   6.586   7.043   3.859  1.8769 -1.2754  0.4993
  106PVA    H5617943   6.622   6.955   3.718  1.4483  3.4327  0.2417
  106PVA    C2917944   6.414   7.035   3.713  0.1550  0.0683  0.2786
  106PVA    H5717945   6.417   6.992   3.612 -0.7380  1.2992 -0.2969
  106PVA    O1017946   6.297   7.020   3.787  0.7918  0.1348  0.5239
  106PVA    H5817947   6.297   6.926   3.811  0.8367 -0.2659 -0.9642
  106PVA    C3017948   6.431   7.188   3.678  0.0340  1.4008 -0.7160
  106PVA    H5917949   6.536   7.175   3.648  0.2936 -2.4938  1.2870
  106PVA    H6017950   6.405   7.247   3.766 -0.3782 -0.5518  0.5062
  106PVA    C3117951   6.366   7.254   3.557  0.3636  1.0226  1.1485
  106PVA    H6117952   6.261   7.224   3.550  0.7333 -0.1475  0.2076
  106PVA    H6217953   6.408   7.200   3.472 -2.5912 -0.3476  0.4218
  106PVA    C3217954   6.385   7.401   3.542 -0.1975  0.3645 -0.1574
  106PVA    H6317955   6.482   7.412   3.493  0.0963  0.2120  0.3910
  106PVA    O1117956   6.385   7.463   3.670 -0.0618  0.4312  0.8848
  106PVA    H6417957   6.299   7.507   3.677 -2.3118 -3.4631  0.5445
  106PVA    C3317958   6.273   7.473   3.461 -0.4314  0.4294  0.6175
  106PVA    H6517959   6.184   7.450   3.521 -1.2560  0.1893 -0.6604
  106PVA    H6617960   6.263   7.411   3.371  3.1153  0.9533 -0.3115
  106PVA    C3417961   6.288   7.622   3.439 -1.0195 -0.5201 -0.1679
  106PVA    H6717962   6.247   7.664   3.532 -0.2075 -1.1928  0.5077
  106PVA    H6817963   6.386   7.672   3.440 -1.5084  0.5444  2.2125
  106PVA    C3517964   6.199   7.679   3.329 -1.5454 -0.6937  0.1599
  106PVA    H6917965   6.213   7.615   3.241  2.0420  1.2334 -0.8830
  106PVA    O1217966   6.056   0.006   3.349  0.3532 -0.2939  0.2927
  106PVA    H7017967   6.029   0.066   3.278  0.4943 -1.3343 -0.6748
  106PVA    C3617968   6.243   0.136   3.284  0.9862  0.0041 -0.4099
  106PVA    H7117969   6.350   0.122   3.305  0.5928  0.7983  2.5219
  106PVA    H7217970   6.197   0.208   3.353  1.3652 -0.7531  0.6586
  106PVA    C3717971   6.254   0.176   3.134  0.3666  0.3431  1.0044
  106PVA    H7317972   6.155   0.194   3.091 -0.3847  0.3899  2.6737
  106PVA    H7417973   6.294   0.104   3.061  2.6892  1.5841  0.9532
  106PVA    C3817974   6.345   0.305   3.095  1.6108  0.0450 -0.0444
  106PVA    H7517975   6.389   0.350   3.184  0.8259  3.4637 -1.2346
  106PVA    O1317976   6.237   0.399   3.049  0.4370  0.5659  0.4104
  106PVA    H7617977   6.289   0.478   3.024  1.1740 -0.6934 -2.4006
  106PVA    C3917978   6.468   0.266   2.996  0.0052  0.1950 -0.5678
  106PVA    H7717979   6.418   0.207   2.919 -1.4705 -0.6728  0.9942
  106PVA    H7817980   6.527   0.220   3.076 -1.3479 -1.3337 -0.4071
  106PVA    C4017981   6.557   0.382   2.927 -1.4050 -0.3877 -0.0981
  106PVA    H7917982   6.501   0.470   2.894 -0.8141  1.0008  2.3642
  106PVA    H8017983   6.611   0.439   3.004  1.8970  2.1333 -3.8622
  106PVA    C4117984   6.658   0.330   2.821 -0.6304 -0.0272 -0.6592
  106PVA    H8117985   6.743   0.287   2.876 -1.7656 -0.8683  0.5129
  106PVA    O1417986   6.599   0.219   2.750 -0.7688  0.6429  0.2784
  106PVA    H8217987   6.574   0.259   2.665 -0.7032  1.1921  0.5129
  106PVA    C4217988   6.706   0.440   2.727 -1.1262 -0.1064  1.2466
  106PVA    H8317989   6.620   0.481   2.672 -1.0846 -5.2602 -3.5091
  106PVA    H8417990   6.761   0.517   2.783  0.4916 -0.0824 -0.3030
  106PVA    C4317991   6.788   0.397   2.605  0.7012  1.6169  0.2144
  106PVA    H8517992   6.740   0.312   2.555  1.2339  0.8304  0.9887
  106PVA    H8617993   6.887   0.362   2.637  0.9195 -1.0238 -2.8971
  106PVA    C4417994   6.850   0.514   2.520  0.1606 -0.2397  0.9240
  106PVA    H8717995   6.874   0.592   2.594 -1.0361 -0.7843  1.9160
  106PVA    O1517996   6.757   0.554   2.416 -0.4710 -0.9367  0.1853
  106PVA    H8817997   6.736   0.479   2.358 -1.8641  0.0642 -0.6516
  106PVA    C4517998   6.995   0.515   2.455  1.0886  0.5476  0.3156
  106PVA    H8917999   7.067   0.548   2.531 -0.8238 -0.0353  2.4787
  106PVA    H9018000   6.989   0.603   2.390  1.6416 -1.4604 -2.6441
  106PVA    C4618001   7.055   0.415   2.348 -0.1955 -0.2257  0.9299
  106PVA    H9118002   6.994   0.420   2.257 -0.9600  0.0606  1.4405
  106PVA    H9218003   7.047   0.312   2.383 -0.3885 -0.6171 -0.2205
  106PVA    C4718004   7.200   0.449   2.311 -1.0324 -0.1972 -0.3976
  106PVA    H9318005   7.182   0.494   2.213  1.7941  1.3697 -0.2915
  106PVA    O1618006   7.279   0.525   2.403  0.8037  0.7080  0.2049
  106PVA    H9418007   7.263   0.616   2.372  1.6607  2.1861  3.5659
  106PVA    C4818008   7.293   0.317   2.292  0.4220 -0.4233  0.1733
  106PVA    H9518009   7.313   0.276   2.392  1.0901  0.9063  0.6008
  106PVA    H9618010   7.229   0.235   2.256  1.0187 -1.0190  0.4467
  106PVA    C4918011   7.414   0.340   2.208  0.0558  0.6853  0.5722
  106PVA    H9718012   7.484   0.344   2.293  3.0258  0.9235 -1.6974
  106PVA    H9818013   7.422   0.441   2.164  1.3834  0.7881  0.9909
  106PVA    C5018014   7.492   0.239   2.119 -0.7589  0.9210  0.1008
  106PVA    H9918015   7.429   0.241   2.029 -3.4590  1.6461  1.8620
  106PVA    O1718016   7.506   0.114   2.181  0.3894  0.3983 -1.0631
  106PVA   H10018017   7.597   0.079   2.176  1.0513  1.9981 -0.6358
  106PVA    C5118018   7.641   0.263   2.057 -0.3557 -0.2077 -0.1885
  106PVA   H10118019   7.702   0.265   2.148 -0.3815 -2.4348 -0.0818
  106PVA   H10218020   7.647   0.359   2.003 -2.9937  0.7990  1.1581
  107PVA     C118021   0.679   4.395   5.303  0.5545 -0.2661 -0.6757
  107PVA     H118022   0.686   4.495   5.257 -3.1564 -0.3651 -1.7882
  107PVA     H218023   0.632   4.348   5.217  2.3728  1.0331 -2.4989
  107PVA     C218024   0.825   4.352   5.339 -0.3174  1.0150  0.2774
  107PVA     H318025   0.870   4.433   5.397 -0.6797  3.0122 -2.0609
  107PVA     O118026   0.823   4.241   5.415  0.5087 -0.2026 -0.0288
  107PVA     H418027   0.769   4.254   5.495  0.3526  2.4967 -0.4972
  107PVA     C318028   0.907   4.338   5.202  0.4013 -0.8431 -0.9608
  107PVA     H518029   1.011   4.348   5.234 -0.3084 -1.3235  1.8197
  107PVA     H618030   0.879   4.427   5.144  0.3083 -0.7840 -0.8275
  107PVA     C418031   0.871   4.229   5.105 -0.5127  0.9634 -0.3869
  107PVA     H718032   0.872   4.135   5.161  1.7577  0.9794 -0.3047
  107PVA     H818033   0.762   4.232   5.092 -1.3560 -6.5716  0.7399
  107PVA     C518034   0.955   4.248   4.976 -0.9879 -0.1428 -0.2072
  107PVA     H918035   0.952   4.354   4.946 -0.2114  0.7449  2.5712
  107PVA     O218036   1.093   4.203   4.992  0.0098 -0.0514  0.0279
  107PVA    H1018037   1.073   4.111   5.016 -2.9211  0.4254 -0.1990
  107PVA     C618038   0.900   4.181   4.848  0.3433  0.0136 -1.3227
  107PVA    H1118039   0.797   4.216   4.831  0.4357  0.5002 -0.9073
  107PVA    H1218040   0.884   4.078   4.881 -1.0549  0.0833 -1.7214
  107PVA     C718041   0.979   4.213   4.717  0.2616 -0.1768  0.4518
  107PVA    H1318042   1.062   4.283   4.728 -1.6813  2.0670  2.2259
  107PVA    H1418043   1.041   4.131   4.678 -0.6193  0.1117 -1.6996
  107PVA     C818044   0.913   4.258   4.588 -0.4065  0.0718 -0.8585
  107PVA    H1518045   0.995   4.289   4.522  2.9770 -4.3859  0.7999
  107PVA     O318046   0.839   4.151   4.518  0.5925 -0.0010 -0.5410
  107PVA    H1618047   0.781   4.184   4.446 -1.9602 -2.2862  0.2851
  107PVA     C918048   0.817   4.378   4.625 -0.4225 -0.7115 -2.0847
  107PVA    H1718049   0.892   4.450   4.659 -3.8796  1.2513  2.4243
  107PVA    H1818050   0.755   4.355   4.713 -0.1306 -0.9832 -1.9486
  107PVA    C1018051   0.727   4.427   4.512  0.3922  0.3076  0.5732
  107PVA    H1918052   0.805   4.449   4.438  2.6177 -1.8424  2.1134
  107PVA    H2018053   0.657   4.347   4.482 -0.5158 -0.9967  5.3231
  107PVA    C1118054   0.641   4.550   4.551 -0.5405 -0.4548 -1.0305
  107PVA    H2118055   0.699   4.612   4.622 -2.8088 -1.2429  1.6974
  107PVA     O418056   0.529   4.512   4.627 -1.3841 -0.4949  0.1657
  107PVA    H2218057   0.475   4.580   4.583 -0.5513 -0.0482 -0.1671
  107PVA    C1218058   0.594   4.650   4.443  0.4649  0.3162 -0.3770
  107PVA    H2318059   0.656   4.665   4.353 -0.3494 -0.6199 -1.1137
  107PVA    H2418060   0.493   4.623   4.409  0.4592 -1.2561  0.7901
  107PVA    C1318061   0.580   4.792   4.507 -1.3563  0.4605 -0.4895
  107PVA    H2518062   0.678   4.827   4.543 -0.1754 -4.1982  1.6255
  107PVA    H2618063   0.525   4.797   4.602  2.6174 -0.0656  2.1134
  107PVA    C1418064   0.512   4.887   4.418  0.5514  0.3296 -0.2666
  107PVA    H2718065   0.510   4.984   4.468 -0.3460  0.6379 -0.8633
  107PVA     O518066   0.589   4.897   4.300  0.2787  0.2491 -0.4433
  107PVA    H2818067   0.543   4.940   4.227 -4.1910 -2.6440  0.2712
  107PVA    C1518068   0.367   4.858   4.376  0.5698 -0.0612 -0.4533
  107PVA    H2918069   0.318   4.822   4.466  0.7462  1.4362  0.2794
  107PVA    H3018070   0.354   4.786   4.295  0.5449 -2.8321  1.8718
  107PVA    C1618071   0.270   4.967   4.323 -1.4349  0.6132 -0.7203
  107PVA    H3118072   0.277   5.066   4.369  2.3995  0.6861 -1.1294
  107PVA    H3218073   0.288   4.977   4.215 -4.4430 -3.4121 -1.8370
  107PVA    C1718074   0.123   4.915   4.322  0.1221 -0.9962 -0.1856
  107PVA    H3318075   0.077   4.927   4.421  0.9909 -0.6253  0.1889
  107PVA     O618076   0.040   5.004   4.248  0.6885 -0.0335  0.3926
  107PVA    H3418077   0.020   5.087   4.295  0.4801  0.6531 -0.8614
  107PVA    C1818078   0.106   4.764   4.271  0.3743  0.0127  0.0455
  107PVA    H3518079   0.152   4.767   4.172 -2.7881  0.9330 -1.5369
  107PVA    H3618080   0.168   4.698   4.333  0.3123 -0.1964 -0.1153
  107PVA    C1918081   7.730   4.716   4.239  0.9812 -0.3610  0.4360
  107PVA    H3718082   7.751   4.613   4.208 -0.6955 -0.0318 -2.1618
  107PVA    H3818083   7.703   4.765   4.145  6.0366 -0.1070 -1.2112
  107PVA    C2018084   7.625   4.728   4.360  0.5955  0.4313  0.8893
  107PVA    H3918085   7.663   4.711   4.461 -1.0664 -2.6398  1.1095
  107PVA     O718086   7.581   4.869   4.361  0.1902  1.0348  0.0473
  107PVA    H4018087   7.655   4.920   4.324  0.2138  0.7677 -0.2759
  107PVA    C2118088   7.505   4.627   4.331  0.3046 -0.2382 -0.4336
  107PVA    H4118089   7.419   4.668   4.385 -1.9617 -0.4284 -3.5759
  107PVA    H4218090   7.482   4.618   4.224 -4.7757 -0.0113  0.3711
  107PVA    C2218091   7.538   4.486   4.399  0.5668  0.1826  0.3739
  107PVA    H4318092   7.552   4.511   4.505  0.7038  0.3980  0.3068
  107PVA    H4418093   7.632   4.454   4.352 -0.9248 -2.3681 -1.1226
  107PVA    C2318094   7.445   4.356   4.389 -0.3976 -0.4227 -0.7479
  107PVA    H4518095   7.359   4.402   4.439  1.0035  2.8499 -1.0568
  107PVA     O818096   7.423   4.346   4.248  0.2052  0.5873  0.1427
  107PVA    H4618097   7.444   4.254   4.222  1.3804  0.8169  0.2353
  107PVA    C2418098   7.496   4.230   4.452  0.4667 -0.2754 -1.0775
  107PVA    H4718099   7.588   4.211   4.395  0.6370  3.7397 -2.4592
  107PVA    H4818100   7.519   4.251   4.557  0.6846 -2.0695 -0.7300
  107PVA    C2518101   7.394   4.116   4.444  0.8112  0.5678 -0.4099
  107PVA    H4918102   7.298   4.158   4.476  2.3914  2.2376  2.5833
  107PVA    H5018103   7.389   4.088   4.338  0.5876 -1.5957  0.1294
  107PVA    C2618104   7.426   3.985   4.521  0.5970 -0.7541  0.9203
  107PVA    H5118105   7.330   3.932   4.515 -2.3788  4.1861  0.1302
  107PVA     O918106   7.538   3.919   4.459 -0.1746  0.8259  0.0870
  107PVA    H5218107   7.611   3.983   4.459  1.9984 -1.5230 -0.5506
  107PVA    C2718108   7.447   3.994   4.670 -1.5093  0.8739 -0.2983
  107PVA    H5318109   7.360   4.040   4.718 -2.9724 -0.5035 -1.4885
  107PVA    H5418110   7.542   4.034   4.707 -0.2580 -0.3552 -2.0159
  107PVA    C2818111   7.445   3.845   4.717  0.6706  0.9670 -0.8289
  107PVA    H5518112   7.487   3.770   4.650  0.8413  0.6651 -0.3909
  107PVA    H5618113   7.336   3.831   4.722  0.3285  2.7023 -2.4485
  107PVA    C2918114   7.500   3.828   4.852  0.0006 -0.6956 -0.8321
  107PVA    H5718115   7.608   3.845   4.862 -0.3947  1.2359  0.7951
  107PVA    O1018116   7.432   3.929   4.936  0.1976 -0.2364 -0.7399
  107PVA    H5818117   7.476   4.013   4.918 -2.5607  2.0417  2.0887
  107PVA    C3018118   7.486   3.676   4.895 -0.7168 -0.8134 -1.1017
  107PVA    H5918119   7.382   3.656   4.923  0.1254 -1.7906  1.7401
  107PVA    H6018120   7.536   3.606   4.826  3.9051 -1.0078  2.0006
  107PVA    C3118121   7.581   3.651   5.006 -1.5619  0.9342  1.6252
  107PVA    H6118122   7.567   3.721   5.089  0.9994  0.7922  2.2631
  107PVA    H6218123   7.683   3.664   4.968 -0.4811 -1.1350  3.5178
  107PVA    C3218124   7.579   3.506   5.063 -0.9444 -0.2379  0.2399
  107PVA    H6318125   7.653   3.461   4.995  1.0885  2.2021  0.6592
  107PVA    O1118126   7.468   3.418   5.031 -0.9319  0.6156  0.0954
  107PVA    H6418127   7.517   3.367   4.964 -1.2610 -1.2340  1.1689
  107PVA    C3318128   7.625   3.490   5.204 -1.0799  0.8594  1.2022
  107PVA    H6518129   7.593   3.386   5.215  1.4291  0.2206  3.5800
  107PVA    H6618130   7.563   3.568   5.250  0.9672  5.6245 -3.1507
  107PVA    C3418131   0.012   3.523   5.234  0.5345 -0.7979  0.2366
  107PVA    H6718132   0.075   3.458   5.171  1.6773  0.6820 -0.1991
  107PVA    H6818133   0.033   3.630   5.225  0.2404 -0.8180 -0.8845
  107PVA    C3518134   0.053   3.502   5.389 -0.0751  0.3894  0.2827
  107PVA    H6918135   7.730   3.536   5.444 -0.3891 -0.1493  0.1151
  107PVA    O1218136   0.058   3.367   5.421 -0.5321 -0.6832  0.4730
  107PVA    H7018137   0.058   3.317   5.338 -1.9059  1.1474 -0.6947
  107PVA    C3618138   0.195   3.580   5.432 -0.7166 -0.3244 -1.0556
  107PVA    H7118139   0.263   3.605   5.350  2.8637  0.6281  1.9300
  107PVA    H7218140   0.164   3.678   5.471 -0.5711 -0.7912  0.2936
  107PVA    C3718141   0.274   3.521   5.555 -0.4943  0.0030 -0.5337
  107PVA    H7318142   0.312   3.422   5.529  2.2630  0.2224  2.0851
  107PVA    H7418143   0.194   3.502   5.627 -1.1488  2.3314 -0.5571
  107PVA    C3818144   0.395   3.604   5.624  0.7698 -0.5298 -0.2390
  107PVA    H7518145   0.366   3.708   5.607  1.4050 -0.0711  1.2711
  107PVA    O1318146   0.529   3.586   5.569 -0.0495  0.8092 -0.1845
  107PVA    H7618147   0.549   3.491   5.568  2.4687  1.2051 -2.9844
  107PVA    C3918148   0.407   3.598   5.780 -0.4083 -0.2675  0.0079
  107PVA    H7718149   0.316   3.598   5.842  1.4688  0.1518  2.9865
  107PVA    H7818150   0.462   3.692   5.795 -1.1587  0.1977 -0.0587
  107PVA    C4018151   0.495   3.480   5.830  0.0342 -0.0300 -0.2975
  107PVA    H7918152   0.475   3.393   5.766  0.9273  0.3856 -1.1882
  107PVA    H8018153   0.601   3.506   5.819  0.0710 -1.0765 -3.5007
  107PVA    C4118154   0.467   3.431   5.970  0.1773 -0.5364 -0.3458
  107PVA    H8118155   0.366   3.391   5.984  0.5427 -2.4675 -2.6344
  107PVA    O1418156   0.477   3.552   6.048  0.4309  0.5398  0.1616
  107PVA    H8218157   0.396   3.606   6.045  1.0432  1.4699  0.0483
  107PVA    C4218158   0.570   3.335   6.027 -0.3665  1.0892 -0.4741
  107PVA    H8318159   0.609   3.260   5.958 -0.0520  0.5228  0.3099
  107PVA    H8418160   0.654   3.404   6.046  0.0755  0.9689 -1.8791
  107PVA    C4318161   0.539   3.270   6.161  0.7351  0.0120 -0.0075
  107PVA    H8518162   0.450   3.209   6.142  2.1746 -2.0989 -0.2756
  107PVA    H8618163   0.520   3.355   6.227 -0.2208 -0.4129  0.2817
  107PVA    C4418164   0.647   3.167   6.222 -0.6928  0.1140  0.0374
  107PVA    H8718165   0.736   3.231   6.217  1.1467 -2.3643 -1.0486
  107PVA    O1518166   0.612   3.143   6.360 -0.7610 -0.1152 -0.8675
  107PVA    H8818167   0.641   3.226   6.403 -2.9568 -0.3444  1.2764
  107PVA    C4518168   0.659   3.036   6.143  0.0005 -0.4890 -0.7152
  107PVA    H8918169   0.569   2.984   6.179 -1.6867  3.4059  1.2975
  107PVA    H9018170   0.645   3.069   6.039  0.5682  1.5027 -0.2075
  107PVA    C4618171   0.782   2.939   6.136  0.5025  0.0810 -0.2065
  107PVA    H9118172   0.747   2.841   6.099  1.1296 -0.6525  1.0673
  107PVA    H9218173   0.801   2.937   6.244  1.5229 -0.9620 -0.3859
  107PVA    C4718174   0.912   2.997   6.070 -0.3002  0.1236 -0.1429
  107PVA    H9318175   0.871   3.016   5.970  0.7284 -5.9081 -2.1208
  107PVA    O1618176   0.946   3.118   6.143  0.6098  0.9694 -0.1011
  107PVA    H9418177   0.855   3.151   6.152 -0.1101  0.5911 -4.2275
  107PVA    C4818178   1.034   2.903   6.064  0.0223  0.5443  0.0452
  107PVA    H9518179   1.044   2.858   6.164 -2.2775  0.2478  0.2037
  107PVA    H9618180   1.015   2.818   5.998 -1.6847  2.0462 -1.5415
  107PVA    C4918181   1.180   2.958   6.024 -0.7176 -0.4318 -0.2020
  107PVA    H9718182   1.212   3.014   6.113  2.2043 -2.5612  0.2263
  107PVA    H9818183   1.178   3.039   5.951 -0.5862 -0.2072  0.0419
  107PVA    C5018184   1.291   2.857   5.966  1.5508 -0.8128  0.5457
  107PVA    H9918185   1.325   2.782   6.039  0.5173  2.0158  4.2609
  107PVA    O1718186   1.235   2.801   5.846  0.2855  0.3529 -0.6906
  107PVA   H10018187   1.245   2.859   5.769  1.0190 -0.9214 -1.6016
  107PVA    C5118188   1.411   2.934   5.908 -0.0672 -0.9293  0.2127
  107PVA   H10118189   1.490   2.877   5.857  1.1310  1.0559 -0.2767
  107PVA   H10218190   1.361   2.980   5.822 -1.1576 -1.3909  0.5883
  108PVA     C118191   0.941   0.416   1.591 -0.2966 -0.7924 -0.8451
  108PVA     H118192   0.912   0.480   1.676  5.9408  2.8793 -0.8394
  108PVA     H218193   0.943   0.488   1.509  2.8281 -0.3180 -0.4690
  108PVA     C218194   1.090   0.373   1.621  0.5671  1.0018 -1.2487
  108PVA     H318195   1.089   0.276   1.569  1.8557 -0.7546  1.7459
  108PVA     O118196   1.080   0.358   1.768 -1.0663  1.0364  0.3139
  108PVA     H418197   1.085   0.443   1.815  3.8296  0.9564  0.5082
  108PVA     C318198   1.222   0.454   1.565 -0.2682 -0.4470 -0.4102
  108PVA     H518199   1.180   0.555   1.571 -2.2060 -1.0492 -2.4000
  108PVA     H618200   1.233   0.440   1.457 -1.4632  0.6943 -0.7108
  108PVA     C418201   1.374   0.435   1.626  1.6213  0.3831 -0.6453
  108PVA     H718202   1.398   0.492   1.717  0.5690  0.5302 -0.4398
  108PVA     H818203   1.354   0.331   1.654  1.5110 -0.3712 -3.3195
  108PVA     C518204   1.501   0.395   1.543  0.4461  0.1690  0.8110
  108PVA     H918205   1.493   0.291   1.509  0.3391 -0.3577  2.3566
  108PVA     O218206   1.491   0.475   1.433 -1.0497  0.5582 -0.2454
  108PVA    H1018207   1.579   0.457   1.396  0.9236  1.9160  3.3771
  108PVA     C618208   1.653   0.418   1.602 -0.2221  0.2139 -0.6697
  108PVA    H1118209   1.647   0.515   1.653 -3.3981 -1.3877  2.3501
  108PVA    H1218210   1.676   0.337   1.672  1.7431 -1.0094 -2.5736
  108PVA     C718211   1.777   0.420   1.500 -0.5241  0.0780 -1.0917
  108PVA    H1318212   1.755   0.498   1.426 -4.8049 -0.2619 -0.4628
  108PVA    H1418213   1.763   0.324   1.448  2.7372 -1.1781  0.1296
  108PVA     C818214   1.921   0.432   1.560 -0.1999  0.5298  0.5535
  108PVA    H1518215   1.922   0.491   1.652 -1.5680  0.6054  0.5446
  108PVA     O318216   1.965   0.295   1.582 -0.0127 -0.1611 -0.4536
  108PVA    H1618217   2.007   0.261   1.501 -1.9274  0.3988 -1.7479
  108PVA     C918218   2.050   0.502   1.492  0.5763  0.2080  1.3199
  108PVA    H1718219   2.010   0.601   1.468  0.4592 -0.4268 -1.5061
  108PVA    H1818220   2.076   0.445   1.402  2.8786  0.8556  1.5261
  108PVA    C1018221   2.182   0.528   1.588  0.9462 -0.5300  0.4443
  108PVA    H1918222   2.144   0.585   1.673  0.0410  1.3953 -1.1599
  108PVA    H2018223   2.197   0.428   1.631 -1.1969 -0.2602  2.0074
  108PVA    C1118224   2.319   0.600   1.546  0.1012  0.7157 -0.4497
  108PVA    H2118225   2.344   0.588   1.440  4.0214 -0.6522  0.4658
  108PVA     O418226   2.304   0.742   1.563 -0.0848 -0.0784 -0.0629
  108PVA    H2218227   2.318   0.778   1.474  4.0196 -2.9812 -0.8700
  108PVA    C1218228   2.442   0.537   1.623  0.5674 -0.1875  0.1342
  108PVA    H2318229   2.446   0.549   1.732  1.4752 -1.5669  0.2676
  108PVA    H2418230   2.420   0.430   1.622 -2.2179  0.2457  1.4459
  108PVA    C1318231   2.588   0.565   1.559 -0.0618 -0.0389 -0.0569
  108PVA    H2518232   2.593   0.542   1.452  1.0461  4.0198 -1.0755
  108PVA    H2618233   2.633   0.472   1.595 -3.8905 -1.6985  0.9844
  108PVA    C1418234   2.693   0.686   1.568  1.5300  0.3795  1.2768
  108PVA    H2718235   2.626   0.772   1.559 -2.0185 -1.9354  3.0586
  108PVA     O518236   2.739   0.685   1.708  0.2989  0.1912  0.6650
  108PVA    H2818237   2.664   0.685   1.770  2.2654 -4.5140  3.7203
  108PVA    C1518238   2.812   0.694   1.469 -0.8101  0.3298 -0.6272
  108PVA    H2918239   2.765   0.709   1.371 -2.0841  0.6217  0.0122
  108PVA    H3018240   2.857   0.594   1.481 -1.9662  0.0312  2.0142
  108PVA    C1618241   2.931   0.788   1.483 -0.5958  0.4346 -0.7444
  108PVA    H3118242   2.897   0.890   1.504 -2.0350 -0.2328  0.3478
  108PVA    H3218243   2.991   0.752   1.568  0.4727 -0.4461 -1.8503
  108PVA    C1718244   3.038   0.773   1.353  0.5524  1.2031 -0.6965
  108PVA    H3318245   2.988   0.768   1.256  3.9890 -0.1288 -2.5639
  108PVA     O618246   3.105   0.642   1.373  0.8364 -0.6098 -0.4025
  108PVA    H3418247   3.039   0.572   1.386 -0.6716  1.2094  3.1474
  108PVA    C1818248   3.165   0.871   1.346  1.1925 -0.6167  0.8687
  108PVA    H3518249   3.224   0.821   1.424 -2.6995 -3.6503  2.1941
  108PVA    H3618250   3.132   0.974   1.361 -2.2290 -1.5185  0.3292
  108PVA    C1918251   3.254   0.872   1.205 -0.8414  0.0922 -0.4158
  108PVA    H3718252   3.293   0.771   1.192 -0.5826  0.3278 -1.5932
  108PVA    H3818253   3.184   0.873   1.121 -1.3401  2.0474 -0.0381
  108PVA    C2018254   3.359   0.991   1.173 -0.4118  0.5283 -1.1314
  108PVA    H3918255   3.430   0.982   1.256 -0.9420 -0.8370 -0.7884
  108PVA     O718256   3.286   1.109   1.190  0.0002 -0.3281  0.2939
  108PVA    H4018257   3.195   1.084   1.212  0.2961 -0.4816  1.4039
  108PVA    C2118258   3.449   0.972   1.038  0.6906  0.0933  0.1396
  108PVA    H4118259   3.434   0.875   0.991  3.0955 -1.1848  1.7835
  108PVA    H4218260   3.548   0.939   1.072  0.4289 -2.8965 -1.6509
  108PVA    C2218261   3.484   1.095   0.927 -0.4480  0.2616  0.2668
  108PVA    H4318262   3.381   1.130   0.925 -0.2935  1.2156  3.5856
  108PVA    H4418263   3.547   1.159   0.989  0.4408  2.0124 -2.2825
  108PVA    C2318264   3.520   1.103   0.764 -0.7020  0.0501  0.1699
  108PVA    H4518265   3.520   1.007   0.712 -0.3871  0.8300 -1.3280
  108PVA     O818266   3.652   1.116   0.774 -0.2509  0.6757 -1.5262
  108PVA    H4618267   3.672   1.174   0.698 -3.4222  3.3655 -0.5559
  108PVA    C2418268   3.485   1.232   0.675  0.1042  0.1700  0.3092
  108PVA    H4718269   3.402   1.265   0.738 -0.7858 -1.1760 -0.1150
  108PVA    H4818270   3.551   1.320   0.677  1.1218 -0.5694  2.8006
  108PVA    C2518271   3.432   1.240   0.530  0.8715 -0.8303  0.3168
  108PVA    H4918272   3.518   1.253   0.462 -1.2888 -1.9901 -2.9057
  108PVA    H5018273   3.380   1.148   0.501  0.9918 -1.8839  3.1249
  108PVA    C2618274   3.338   1.365   0.477 -0.5203  0.1633  0.5286
  108PVA    H5118275   3.406   1.446   0.508  1.7947 -2.4659  2.8624
  108PVA     O918276   3.220   1.372   0.560 -0.4639  0.8714  0.1496
  108PVA    H5218277   3.160   1.415   0.496 -1.1323 -1.8474 -1.1777
  108PVA    C2718278   3.326   1.395   0.325 -0.7338 -0.5576 -0.0020
  108PVA    H5318279   3.308   1.298   0.278 -0.8622  0.1400 -1.4187
  108PVA    H5418280   3.431   1.411   0.300  0.1676 -2.5309  2.1421
  108PVA    C2818281   3.223   1.495   0.268  0.6854  0.0551 -0.1495
  108PVA    H5518282   3.136   1.438   0.234  1.9424 -2.5093  0.7076
  108PVA    H5618283   3.182   1.553   0.352 -1.2721  1.9146 -2.2344
  108PVA    C2918284   3.249   1.582   0.139 -0.2382 -0.6637 -0.0323
  108PVA    H5718285   3.239   1.678   0.190  1.5636 -2.1075  3.3410
  108PVA    O1018286   3.384   1.571   0.103 -0.3370  0.3961 -0.5296
  108PVA    H5818287   3.395   1.488   0.053  4.9630 -1.0196  2.2104
  108PVA    C3018288   3.154   1.583   0.013  0.0468  0.5653 -0.5241
  108PVA    H5918289   3.139   1.492   8.051 -0.4377  0.7584 -0.7064
  108PVA    H6018290   3.050   1.592   0.049  0.6119  0.6197  1.1774
  108PVA    C3118291   3.183   1.701   8.017  0.5191  0.6431  1.1462
  108PVA    H6118292   3.245   1.661   7.935 -3.8090 -1.7214 -1.3047
  108PVA    H6218293   3.250   1.769   8.072  0.7529 -0.8965  2.8495
  108PVA    C3218294   3.048   1.766   7.948 -0.0861 -0.0826  0.7667
  108PVA    H6318295   2.997   1.673   7.920 -1.5833  0.2769  2.1393
  108PVA    O1118296   2.971   1.839   8.029 -1.2292 -0.4379 -0.1495
  108PVA    H6418297   3.007   1.928   8.016  0.9300 -1.4473 -1.7311
  108PVA    C3318298   3.057   1.819   7.796  0.1867 -0.2127  0.6187
  108PVA    H6518299   3.151   1.872   7.774 -0.0301 -0.1801 -0.2632
  108PVA    H6618300   3.060   1.735   7.726 -0.9692  1.3510 -1.4004
  108PVA    C3418301   2.938   1.928   7.761 -0.1037 -0.2845 -0.3409
  108PVA    H6718302   2.838   1.887   7.745 -0.9314  1.2645  0.6221
  108PVA    H6818303   2.920   1.996   7.845  2.3153 -3.0258  2.6535
  108PVA    C3518304   2.934   2.011   7.630  0.8250  0.3796  0.9808
  108PVA    H6918305   3.014   2.086   7.640  1.7081 -0.4911  0.5237
  108PVA    O1218306   2.990   1.924   7.527  1.1118 -0.1827 -0.2904
  108PVA    H7018307   3.048   1.865   7.578  2.9512  2.3424  0.7625
  108PVA    C3618308   2.804   2.103   7.588  0.6116 -0.4783  0.9013
  108PVA    H7118309   2.709   2.055   7.613 -1.2122  0.3561 -3.4443
  108PVA    H7218310   2.784   2.180   7.663 -1.1233  2.6255 -2.4095
  108PVA    C3718311   2.779   2.162   7.446 -1.0054 -0.0330 -0.4632
  108PVA    H7318312   2.851   2.243   7.430 -4.3530  2.9817 -1.6243
  108PVA    H7418313   2.774   2.084   7.369 -3.3168 -2.3245  1.8135
  108PVA    C3818314   2.652   2.233   7.418 -0.7880  0.4110 -0.0040
  108PVA    H7518315   2.577   2.178   7.477 -1.2735  0.9185 -0.1356
  108PVA    O1318316   2.660   2.361   7.488 -0.5127 -0.0582  0.2479
  108PVA    H7618317   2.717   2.421   7.437 -2.1276  0.5983 -0.8988
  108PVA    C3918318   2.603   2.249   7.269 -0.4050  0.3937 -0.5038
  108PVA    H7718319   2.612   2.158   7.208 -1.9026  0.2906 -0.6091
  108PVA    H7818320   2.676   2.318   7.224  4.1007 -3.5716 -0.0860
  108PVA    C4018321   2.462   2.307   7.253  0.0441  0.8742  0.5404
  108PVA    H7918322   2.400   2.228   7.297  0.7421  1.0609  1.9359
  108PVA    H8018323   2.447   2.396   7.315  2.9169  2.1348 -0.4028
  108PVA    C4118324   2.407   2.343   7.118  0.7192  0.3152  0.2943
  108PVA    H8118325   2.422   2.262   7.045  1.0328  1.8047 -1.3664
  108PVA    O1418326   2.504   2.422   7.051  0.1492  0.4507  0.1307
  108PVA    H8218327   2.596   2.403   7.077 -1.0026 -2.7027  2.4555
  108PVA    C4218328   2.268   2.407   7.108  1.5549 -0.7146 -0.5407
  108PVA    H8318329   2.276   2.478   7.191  0.3394 -0.0152 -0.9923
  108PVA    H8418330   2.192   2.339   7.148 -0.6039  1.6677 -0.3017
  108PVA    C4318331   2.207   2.474   6.975  0.4332  0.4870 -0.2932
  108PVA    H8518332   2.236   2.401   6.898 -1.2691  2.0349 -2.5536
  108PVA    H8618333   2.257   2.565   6.940 -3.7196  3.1539 -0.0313
  108PVA    C4418334   2.065   2.528   6.976  0.6324 -0.8360 -0.0893
  108PVA    H8718335   2.060   2.596   7.062  2.9808  1.9237 -1.9345
  108PVA    O1518336   1.957   2.434   6.984 -0.7268  0.1678 -0.3807
  108PVA    H8818337   1.949   2.414   6.889 -0.4240 -3.2056  0.1718
  108PVA    C4518338   2.044   2.629   6.857 -0.2125  0.2845  0.2127
  108PVA    H8918339   2.103   2.586   6.775 -1.3061 -0.5726 -0.1550
  108PVA    H9018340   2.079   2.728   6.890 -0.7447  1.6487 -2.9322
  108PVA    C4618341   1.883   2.651   6.801 -0.8046  0.2961 -0.7167
  108PVA    H9118342   1.876   2.571   6.728  3.2975 -2.0439  1.0651
  108PVA    H9218343   1.816   2.620   6.882  3.2764  1.1375  3.4369
  108PVA    C4718344   1.860   2.790   6.746  0.2588 -0.4030 -0.9903
  108PVA    H9318345   1.810   2.845   6.828  2.3733  0.2529 -0.0654
  108PVA    O1618346   1.977   2.855   6.700  0.2090  0.4334  0.6671
  108PVA    H9418347   1.949   2.941   6.664 -2.5497 -0.5784  0.2022
  108PVA    C4818348   1.765   2.806   6.613 -0.5516  0.4968 -0.6201
  108PVA    H9518349   1.809   2.741   6.536  2.9274 -2.1810  3.1318
  108PVA    H9618350   1.661   2.774   6.625 -0.4772 -0.5410 -2.4273
  108PVA    C4918351   1.747   2.949   6.542 -0.8446 -0.1598  0.0149
  108PVA    H9718352   1.846   2.995   6.532 -0.2904 -1.3506 -0.0693
  108PVA    H9818353   1.701   3.013   6.620 -0.3389 -0.6569  0.7290
  108PVA    C5018354   1.650   2.965   6.422 -0.6515  0.1721  0.7925
  108PVA    H9918355   1.679   2.878   6.362 -3.1047 -3.3422  4.2002
  108PVA    O1718356   1.521   2.968   6.472  0.3129 -0.3513  0.1347
  108PVA   H10018357   1.521   2.897   6.538  2.1308 -3.4139 -2.8220
  108PVA    C5118358   1.668   3.088   6.327  0.8669  0.7951  0.6162
  108PVA   H10118359   1.760   3.140   6.356  1.5379 -1.0244  2.0091
  108PVA   H10218360   1.586   3.161   6.339  0.1887  0.5104 -1.8244
  109PVA     C118361   0.494   0.290   1.344 -0.3541  0.0422  0.9696
  109PVA     H118362   0.417   0.212   1.340 -1.3143  1.0040  0.0181
  109PVA     H218363   0.543   0.294   1.246 -1.3673  0.5003  0.4652
  109PVA     C218364   0.407   0.417   1.342  0.0142  0.3261 -0.1709
  109PVA     H318365   0.469   0.494   1.390 -0.8602 -0.4697  2.4298
  109PVA     O118366   0.389   0.468   1.219  0.2515  0.2070  0.1074
  109PVA     H418367   0.315   0.530   1.232  1.9680  2.2409  0.8116
  109PVA     C318368   0.266   0.416   1.410 -0.1619  0.3245 -0.6728
  109PVA     H518369   0.231   0.316   1.436 -0.8837  0.3608 -1.4947
  109PVA     H618370   0.197   0.452   1.333  2.5114  1.5954 -2.6418
  109PVA     C418371   0.254   0.503   1.537  1.3584  0.2321  0.0483
  109PVA     H718372   0.285   0.601   1.500 -0.7074  0.2944 -1.6986
  109PVA     H818373   0.320   0.466   1.617 -1.8051  0.8830  3.2195
  109PVA     C518374   0.109   0.536   1.598  0.2058 -0.5217 -0.0576
  109PVA     H918375   0.069   0.434   1.598  0.1709 -0.5084 -0.3984
  109PVA     O218376   0.041   0.617   1.499 -1.0587  0.0204 -0.2321
  109PVA    H1018377   0.018   0.543   1.440  2.5303 -1.8264  0.3898
  109PVA     C618378   0.101   0.588   1.738 -0.6502  0.5196  0.6632
  109PVA    H1118379   0.133   0.535   1.829  1.1112  5.9920  3.7066
  109PVA    H1218380   0.178   0.666   1.748  2.1867 -1.8330 -1.2791
  109PVA     C718381   7.732   0.654   1.784  0.2932 -0.3309 -0.6879
  109PVA    H1318382   7.735   0.659   1.893  2.3994 -1.3334 -0.6428
  109PVA    H1418383   7.652   0.579   1.777  0.6794 -0.8570  0.3562
  109PVA     C818384   7.683   0.796   1.722 -0.0363  0.2415 -0.8817
  109PVA    H1518385   7.623   0.850   1.796 -1.4385 -3.3751  0.8750
  109PVA     O318386   7.594   0.755   1.611 -0.8045 -0.4085  0.8767
  109PVA    H1618387   7.661   0.695   1.574  2.1763  0.1471  4.6750
  109PVA     C918388   0.026   0.894   1.682 -0.9847  0.4423 -0.1611
  109PVA    H1718389   0.120   0.871   1.734 -0.8013 -3.2635 -1.7604
  109PVA    H1818390   0.047   0.857   1.581 -0.1343  0.7220 -0.0990
  109PVA    C1018391   7.752   1.040   1.694 -0.2510  0.7037  0.1129
  109PVA    H1918392   7.717   1.040   1.798  0.3694 -4.4714  0.5799
  109PVA    H2018393   7.662   1.068   1.638  0.1178  3.2595  0.6407
  109PVA    C1118394   0.101   1.155   1.679  0.8091 -0.4916  0.6043
  109PVA    H2118395   0.107   1.231   1.759  3.6808  2.3262 -1.9915
  109PVA     O418396   0.224   1.075   1.670  0.8734 -0.2014 -0.3410
  109PVA    H2218397   0.286   1.141   1.704  0.4921  0.0881 -0.1898
  109PVA    C1218398   0.071   1.253   1.556 -0.5088  0.8695 -0.3750
  109PVA    H2318399   0.017   1.204   1.474  1.3733 -1.3963 -0.3569
  109PVA    H2418400   7.758   1.320   1.593 -1.0303 -0.8320  1.7878
  109PVA    C1318401   0.189   1.341   1.486  1.3344  0.0658 -0.6472
  109PVA    H2518402   0.227   1.407   1.566 -0.8729  0.7936 -0.1220
  109PVA    H2618403   0.134   1.416   1.427 -0.7329 -1.2913 -0.5257
  109PVA    C1418404   0.302   1.266   1.421 -0.1453 -0.7948 -1.1492
  109PVA    H2718405   0.272   1.160   1.425 -1.7226 -0.3282  2.2251
  109PVA     O518406   0.422   1.275   1.500 -0.4718  0.2799  0.5349
  109PVA    H2818407   0.476   1.204   1.462  0.2783 -0.1922  2.3642
  109PVA    C1518408   0.330   1.308   1.281  0.3095 -0.7915  0.4778
  109PVA    H2918409   0.235   1.304   1.226  0.8553  0.8517 -0.6567
  109PVA    H3018410   0.366   1.410   1.300  3.8710 -2.2524  2.6851
  109PVA    C1618411   0.440   1.205   1.213  0.5350  0.2403 -0.7123
  109PVA    H3118412   0.411   1.115   1.269  1.5291  2.6099  4.1963
  109PVA    H3218413   0.543   1.224   1.248  0.3239  1.3548 -0.6409
  109PVA    C1718414   0.431   1.175   1.063 -0.2380 -0.0994 -0.7129
  109PVA    H3318415   0.445   1.274   1.018  3.7951  0.4405  1.2792
  109PVA     O618416   0.302   1.118   1.050  0.1583 -0.2614 -0.7881
  109PVA    H3418417   0.290   1.057   0.975 -0.5585 -0.3634 -0.5981
  109PVA    C1818418   0.534   1.067   1.005 -0.1676  0.1572  1.0625
  109PVA    H3518419   0.540   0.968   1.051 -0.4360 -0.5063 -0.2668
  109PVA    H3618420   0.500   1.043   0.903 -1.1197  0.2224  1.3521
  109PVA    C1918421   0.681   1.136   0.966  0.5747  0.3850 -0.7122
  109PVA    H3718422   0.691   1.228   1.025 -5.5159  0.4972  0.7740
  109PVA    H3818423   0.767   1.088   1.014  0.8306 -0.4098 -1.8910
  109PVA    C2018424   0.703   1.152   0.811  0.2337  0.0906  0.3390
  109PVA    H3918425   0.611   1.174   0.757  1.8235 -0.3323 -2.7982
  109PVA     O718426   0.731   1.015   0.774 -0.6890  0.2988 -0.5945
  109PVA    H4018427   0.758   0.968   0.854  0.1948  0.6637 -0.6727
  109PVA    C2118428   0.824   1.247   0.784 -1.0757 -0.5250 -0.6400
  109PVA    H4118429   0.915   1.200   0.824 -0.7089  2.8231  3.1035
  109PVA    H4218430   0.814   1.331   0.854  1.7979  1.3270 -2.2457
  109PVA    C2218431   0.829   1.300   0.638 -1.5493  0.2605 -0.5939
  109PVA    H4318432   0.729   1.323   0.599 -2.0420  0.4572  0.7182
  109PVA    H4418433   0.854   1.236   0.553  0.4612  1.8791 -1.2936
  109PVA    C2318434   0.921   1.418   0.625  0.3161 -0.7736 -0.1077
  109PVA    H4518435   0.868   1.495   0.681  3.5114  1.2462  0.3789
  109PVA     O818436   1.042   1.372   0.690 -0.2632  0.2100  0.7086
  109PVA    H4618437   1.074   1.288   0.655 -1.5896 -0.8372  1.8915
  109PVA    C2418438   0.933   1.457   0.478  0.0109 -1.2625  1.2891
  109PVA    H4718439   1.013   1.388   0.449  2.0553 -0.7616  5.1232
  109PVA    H4818440   0.853   1.422   0.411  1.0843 -1.1652 -0.0833
  109PVA    C2518441   0.959   1.615   0.458 -0.5804 -1.0102 -0.5800
  109PVA    H4918442   1.066   1.630   0.479 -0.0072 -4.1692 -0.8626
  109PVA    H5018443   0.915   1.673   0.541  2.5117 -1.2005  1.3704
  109PVA    C2618444   0.937   1.667   0.311  0.0360  0.1494 -0.5558
  109PVA    H5118445   1.038   1.664   0.268 -0.4925  2.7559 -2.2294
  109PVA     O918446   0.890   1.566   0.231 -0.6298  0.9873  0.1382
  109PVA    H5218447   0.805   1.586   0.188 -0.4644  0.7686 -0.2910
  109PVA    C2718448   0.892   1.812   0.263 -0.0839  0.1866  0.3030
  109PVA    H5318449   0.948   1.812   0.169  0.0868  1.8580  0.3711
  109PVA    H5418450   0.934   1.895   0.321 -0.6519 -0.4859  1.7168
  109PVA    C2818451   0.743   1.850   0.230 -0.3903 -0.3645 -0.1076
  109PVA    H5518452   0.750   1.913   0.140  3.4237  0.6346  0.6836
  109PVA    H5618453   0.698   1.762   0.184  0.6851 -0.3141 -1.3164
  109PVA    C2918454   0.648   1.919   0.322 -0.0079 -0.1580  0.1663
  109PVA    H5718455   0.601   1.845   0.388 -4.5840  3.7094  1.9088
  109PVA    O1018456   0.730   2.005   0.401  0.4888  0.2496 -0.4974
  109PVA    H5818457   0.687   2.011   0.488  1.9478 -2.6767  0.5664
  109PVA    C3018458   0.525   2.017   0.271 -0.6212  0.2071 -1.3661
  109PVA    H5918459   0.563   2.072   0.184 -0.7999  0.0670 -1.5340
  109PVA    H6018460   0.503   2.095   0.345  4.1081  2.7758 -2.2583
  109PVA    C3118461   0.395   1.946   0.275  0.3841  0.1230  0.2197
  109PVA    H6118462   0.317   2.023   0.281 -1.8630 -2.1092  1.7887
  109PVA    H6218463   0.369   1.903   0.373 -4.1616  4.0645  1.0714
  109PVA    C3218464   0.357   1.872   0.142 -0.2087  0.8634  0.0759
  109PVA    H6318465   0.352   1.935   0.053  1.1401  0.0584 -0.6074
  109PVA    O1118466   0.458   1.783   0.115 -0.8027  0.6574 -0.0423
  109PVA    H6418467   0.474   1.725   0.192 -3.4490  1.3306  1.1118
  109PVA    C3318468   0.223   1.796   0.147  0.5373 -0.7991  0.7220
  109PVA    H6518469   0.157   1.873   0.188 -0.1480 -1.0321  0.0760
  109PVA    H6618470   0.212   1.715   0.220 -0.0655 -1.9839 -0.6137
  109PVA    C3418471   0.173   1.748   0.009 -0.0392 -0.6281  0.6667
  109PVA    H6718472   0.065   1.736   0.016  0.2357 -2.8957  1.9353
  109PVA    H6818473   0.193   1.828   8.034 -0.1955 -3.8536 -3.3042
  109PVA    C3518474   0.238   1.621   8.063  0.0477  2.1182  0.9290
  109PVA    H6918475   0.346   1.623   8.081  0.4111  0.2598 -0.6992
  109PVA    O1218476   0.203   1.519   0.061 -1.1096  0.0140  0.5874
  109PVA    H7018477   0.126   1.473   0.022 -2.6645  2.1076  0.9708
  109PVA    C3618478   0.205   1.581   7.913 -0.5249  0.2233  0.1070
  109PVA    H7118479   0.174   1.476   7.910  0.7825 -0.1738  0.1741
  109PVA    H7218480   0.127   1.652   7.881 -2.2086 -1.5442  0.0510
  109PVA    C3718481   0.329   1.625   7.819  0.5171  0.4024  0.0846
  109PVA    H7318482   0.410   1.598   7.888 -1.4753  1.4485  3.0559
  109PVA    H7418483   0.315   1.732   7.799 -3.3024  0.4560  1.9737
  109PVA    C3818484   0.322   1.568   7.677 -0.1605  0.1035 -0.3544
  109PVA    H7518485   0.325   1.459   7.682  3.0808  0.1476  4.2213
  109PVA    O1318486   0.200   1.597   7.616 -0.1775 -0.1464 -0.0541
  109PVA    H7618487   0.175   1.523   7.558 -0.5147 -0.1631  0.1125
  109PVA    C3918488   0.439   1.601   7.579  0.0881  0.1650 -0.5623
  109PVA    H7718489   0.531   1.616   7.637 -0.0757 -0.4529 -0.1331
  109PVA    H7818490   0.427   1.698   7.528 -1.7349 -1.8182 -4.2938
  109PVA    C4018491   0.463   1.495   7.472 -0.3715  0.6844  0.9995
  109PVA    H7918492   0.409   1.403   7.497 -0.7291  1.2241  2.2873
  109PVA    H8018493   0.415   1.535   7.381 -0.0641  1.3009  1.1068
  109PVA    C4118494   0.606   1.463   7.430 -0.1296 -0.3238 -0.0371
  109PVA    H8118495   0.655   1.554   7.393  1.2819  0.3749  3.1663
  109PVA    O1418496   0.686   1.436   7.541  0.2211  0.4539 -1.2151
  109PVA    H8218497   0.776   1.466   7.517  0.0985 -0.7983 -3.5454
  109PVA    C4218498   0.620   1.335   7.344 -0.4619  0.4278  0.6405
  109PVA    H8318499   0.600   1.247   7.405 -2.9093 -1.2528 -2.2809
  109PVA    H8418500   0.724   1.321   7.311  0.3459  5.8513 -0.1534
  109PVA    C4318501   0.542   1.331   7.209  0.1027  0.1076  0.3277
  109PVA    H8518502   0.598   1.278   7.130 -0.0633 -1.6096  1.3253
  109PVA    H8618503   0.536   1.436   7.176 -5.7746  0.1234  0.3725
  109PVA    C4418504   0.399   1.286   7.199 -0.1864 -0.1361 -0.8273
  109PVA    H8718505   0.335   1.374   7.186  0.5202  0.3110 -1.3302
  109PVA    O1518506   0.362   1.214   7.312 -0.3103  0.5438 -0.7833
  109PVA    H8818507   0.441   1.161   7.336 -1.7861 -1.3478  0.1776
  109PVA    C4518508   0.369   1.190   7.080  0.1821  1.1052  0.2032
  109PVA    H8918509   0.424   1.095   7.092  5.5224  3.9255  1.4377
  109PVA    H9018510   0.419   1.239   6.996 -1.1250  3.8104  0.9072
  109PVA    C4618511   0.216   1.147   7.066  0.0346  0.3382  0.1662
  109PVA    H9118512   0.185   1.123   7.168 -1.1859 -0.8858 -0.4754
  109PVA    H9218513   0.172   1.244   7.040  2.5903  0.8423 -3.0668
  109PVA    C4718514   0.174   1.036   6.960 -0.7747  0.4476 -1.0158
  109PVA    H9318515   0.118   1.096   6.886  0.0416  2.6472  0.0626
  109PVA    O1618516   0.100   0.946   7.034 -0.4463  0.9426 -0.9691
  109PVA    H9418517   0.071   0.870   6.980 -0.6922 -3.1603  4.1141
  109PVA    C4818518   0.294   0.958   6.895 -0.2009 -0.0795  0.6958
  109PVA    H9518519   0.380   1.022   6.871  0.1437 -0.6629  0.3336
  109PVA    H9618520   0.345   0.895   6.969  5.1778 -1.0838 -3.2229
  109PVA    C4918521   0.236   0.887   6.774  0.2619 -0.4984 -0.5840
  109PVA    H9718522   0.203   0.966   6.705  4.6177  2.0662 -0.1043
  109PVA    H9818523   0.145   0.827   6.784 -2.1402  2.8970 -0.4985
  109PVA    C5018524   0.348   0.793   6.701  0.1911  0.2491 -0.1544
  109PVA    H9918525   0.324   0.758   6.599 -3.8992 -3.1475  1.6480
  109PVA    O1718526   0.473   0.869   6.692  0.2962 -0.0991  0.5897
  109PVA   H10018527   0.458   0.925   6.614 -2.9326  0.4733  1.4635
  109PVA    C5118528   0.367   0.657   6.786 -0.2459  0.3302  0.8879
  109PVA   H10118529   0.414   0.668   6.884  0.6097  1.2110  0.3961
  109PVA   H10218530   0.263   0.636   6.813 -0.8874  4.8398  2.8315
  110PVA     C118531   1.420   3.480   5.288  0.4672 -1.0617  0.2022
  110PVA     H118532   1.478   3.394   5.251  1.2434  0.4489 -2.3308
  110PVA     H218533   1.342   3.436   5.351 -1.8196 -1.6304 -2.7907
  110PVA     C218534   1.349   3.566   5.193 -0.3025 -0.5449  0.9922
  110PVA     H318535   1.271   3.502   5.149 -0.3854  1.2148 -1.6372
  110PVA     O118536   1.445   3.586   5.095  0.1970 -0.1233  0.0782
  110PVA     H418537   1.406   3.636   5.021 -3.7169  4.0650  4.3066
  110PVA     C318538   1.295   3.706   5.228 -0.7592  0.3384  0.2891
  110PVA     H518539   1.374   3.782   5.221 -0.0088 -0.2759  1.7509
  110PVA     H618540   1.259   3.721   5.330 -3.2970  0.1303 -0.5038
  110PVA     C418541   1.181   3.754   5.139  0.7657 -0.3981  0.0957
  110PVA     H718542   1.209   3.736   5.035 -1.2569  1.8667 -0.9263
  110PVA     H818543   1.087   3.701   5.157 -0.5380  2.5554  3.1702
  110PVA     C518544   1.153   3.910   5.154  0.0245 -0.4643 -0.0994
  110PVA     H918545   1.236   3.962   5.104 -1.6978 -2.1187 -5.4068
  110PVA     O218546   1.041   3.950   5.082 -1.4308 -0.8310 -1.2709
  110PVA    H1018547   1.016   3.878   5.022  0.5852 -1.4805 -1.4149
  110PVA     C618548   1.153   3.968   5.297 -0.8101 -0.7709 -0.4345
  110PVA    H1118549   1.077   3.928   5.365  1.4000  3.1118  5.0550
  110PVA    H1218550   1.244   3.958   5.358 -2.5627  3.8222  3.5292
  110PVA     C718551   1.167   4.127   5.312  0.6577  0.0536  0.8154
  110PVA    H1318552   1.066   4.169   5.304  1.0540  0.6045 -3.0360
  110PVA    H1418553   1.237   4.173   5.242  2.2207 -2.5371  0.5583
  110PVA     C818554   1.215   4.185   5.441  0.1397  0.7429 -1.3853
  110PVA    H1518555   1.268   4.103   5.492 -2.6582  0.1003  0.8162
  110PVA     O318556   1.104   4.210   5.529  0.5166  1.0970  0.0173
  110PVA    H1618557   1.088   4.116   5.552 -1.7193  1.3066 -0.4336
  110PVA     C918558   1.320   4.301   5.437  0.1898 -0.1936  0.1514
  110PVA    H1718559   1.368   4.318   5.340  1.0273 -0.8395  0.4423
  110PVA    H1818560   1.258   4.388   5.462  0.0191 -0.0873 -0.6286
  110PVA    C1018561   1.411   4.296   5.553  0.2588  0.2693 -0.6174
  110PVA    H1918562   1.462   4.202   5.532  0.4293  0.6530 -2.0698
  110PVA    H2018563   1.367   4.265   5.648  0.8332 -3.3641 -1.3856
  110PVA    C1118564   1.533   4.391   5.532  0.6592 -0.2649  0.1901
  110PVA    H2118565   1.498   4.481   5.479 -0.0775 -1.5244 -1.5638
  110PVA     O418566   1.631   4.342   5.442 -0.9301  0.2868 -0.0461
  110PVA    H2218567   1.702   4.409   5.441 -1.9669  1.4884 -3.0807
  110PVA    C1218568   1.610   4.455   5.660  1.6216 -1.6578  0.4407
  110PVA    H2318569   1.698   4.402   5.699  2.1708 -1.2407 -0.2114
  110PVA    H2418570   1.640   4.559   5.640 -5.1804  0.6043 -0.7125
  110PVA    C1318571   1.501   4.486   5.774  0.9358  0.8059 -0.4364
  110PVA    H2518572   1.491   4.390   5.826 -0.9740  2.4942  2.6420
  110PVA    H2618573   1.403   4.502   5.728 -0.4932 -3.0800  0.8778
  110PVA    C1418574   1.532   4.612   5.857  0.5733 -0.5274  0.5364
  110PVA    H2718575   1.516   4.692   5.783 -0.3104 -0.1114  1.1682
  110PVA     O518576   1.670   4.624   5.899  0.2740 -0.8619 -0.5255
  110PVA    H2818577   1.696   4.711   5.866 -0.2391 -0.4307  0.1799
  110PVA    C1518578   1.437   4.633   5.979  0.3696  0.3053  0.5176
  110PVA    H2918579   1.342   4.660   5.931  0.2080 -1.0993  0.0080
  110PVA    H3018580   1.426   4.536   6.029  3.6428 -0.9751 -0.9223
  110PVA    C1618581   1.466   4.753   6.065 -0.1948 -0.9078  0.1744
  110PVA    H3118582   1.567   4.743   6.105 -0.9894  0.4716  2.8267
  110PVA    H3218583   1.475   4.842   6.001 -0.7561 -0.6914  0.3844
  110PVA    C1718584   1.357   4.783   6.176 -0.3703  0.0671  1.2673
  110PVA    H3318585   1.333   4.697   6.239 -2.9355  1.0630  1.7605
  110PVA     O618586   1.239   4.816   6.130 -0.0987 -0.3816  0.5760
  110PVA    H3418587   1.186   4.781   6.203  0.1940 -1.6875  0.1885
  110PVA    C1818588   1.401   4.878   6.290 -0.3097  0.3387  0.2491
  110PVA    H3518589   1.316   4.870   6.359 -2.2321 -4.7181 -2.2565
  110PVA    H3618590   1.489   4.845   6.346 -0.2122  0.5009  0.1922
  110PVA    C1918591   1.420   5.027   6.250 -0.3840 -0.0027 -0.6112
  110PVA    H3718592   1.329   5.080   6.220 -1.7487 -2.5904 -1.3224
  110PVA    H3818593   1.481   5.030   6.158 -0.5326  3.1941 -0.7281
  110PVA    C2018594   1.514   5.100   6.345  0.1109  0.3125 -0.3090
  110PVA    H3918595   1.486   5.092   6.451 -2.0554 -2.7095 -0.9759
  110PVA     O718596   1.651   5.052   6.324 -0.1185 -0.6672  0.1587
  110PVA    H4018597   1.698   5.134   6.346  1.5072 -1.7624  1.0024
  110PVA    C2118598   1.528   5.250   6.300 -0.6318 -0.4823  0.4596
  110PVA    H4118599   1.618   5.298   6.342  2.8288 -3.3884 -2.9078
  110PVA    H4218600   1.538   5.250   6.191  0.6337 -2.0360  0.5428
  110PVA    C2218601   1.408   5.333   6.339 -0.2134 -1.0307  0.2142
  110PVA    H4318602   1.340   5.323   6.253 -1.3477 -1.0406  1.0812
  110PVA    H4418603   1.360   5.291   6.428 -1.2487  2.6660  1.6074
  110PVA    C2318604   1.421   5.493   6.348  0.8799 -0.5352  0.9210
  110PVA    H4518605   1.474   5.509   6.254 -0.7357 -0.1011  0.0450
  110PVA     O818606   1.294   5.550   6.337 -0.0047  0.1700 -0.8421
  110PVA    H4618607   1.230   5.487   6.374 -5.1421  3.8223 -2.3628
  110PVA    C2418608   1.506   5.550   6.478  1.7087  0.2818  1.2990
  110PVA    H4718609   1.450   5.485   6.546 -0.3626 -2.7560 -2.8487
  110PVA    H4818610   1.608   5.510   6.467  0.9991 -1.1833 -0.4388
  110PVA    C2518611   1.503   5.708   6.489 -0.4827  0.0455 -0.1057
  110PVA    H4918612   1.400   5.736   6.513 -2.4756 -4.3124 -2.4012
  110PVA    H5018613   1.550   5.759   6.404 -1.1918  1.7298  0.4690
  110PVA    C2618614   1.594   5.728   6.611 -1.0967 -0.0681 -0.4633
  110PVA    H5118615   1.648   5.634   6.630 -2.5310 -1.2801 -2.1108
  110PVA     O918616   1.689   5.822   6.585 -0.9781 -0.0597  1.1773
  110PVA    H5218617   1.642   5.901   6.555  1.2096 -0.3699 -4.2080
  110PVA    C2718618   1.513   5.752   6.745 -0.3621 -0.4248  0.8313
  110PVA    H5318619   1.439   5.672   6.738 -1.3917  0.4314  1.5391
  110PVA    H5418620   1.577   5.737   6.833  2.7376 -4.6118 -1.7949
  110PVA    C2818621   1.440   5.884   6.771  0.1632  0.6525  0.1476
  110PVA    H5518622   1.520   5.956   6.748  0.7554 -0.6771 -2.3348
  110PVA    H5618623   1.373   5.886   6.684 -0.0051  1.6899  0.2781
  110PVA    C2918624   1.366   5.906   6.900  0.4071  0.5077  0.9801
  110PVA    H5718625   1.414   5.860   6.987  0.4464 -2.5321 -0.5190
  110PVA    O1018626   1.244   5.829   6.887 -0.8433  0.1323  0.1042
  110PVA    H5818627   1.175   5.896   6.902  3.6653  4.7150  3.4599
  110PVA    C3018628   1.328   6.047   6.939 -0.6463  0.4777 -0.1641
  110PVA    H5918629   1.308   6.054   7.047 -0.0232 -1.5370  0.1221
  110PVA    H6018630   1.427   6.095   6.933  0.2084 -1.2394 -0.4927
  110PVA    C3118631   1.220   6.113   6.855 -0.7802 -0.4867  0.6342
  110PVA    H6118632   1.239   6.102   6.747 -0.8933 -3.1215  0.7955
  110PVA    H6218633   1.246   6.219   6.860  2.1436 -1.0060 -0.9486
  110PVA    C3218634   1.077   6.112   6.906 -0.1393  0.4320 -0.6846
  110PVA    H6318635   1.070   6.174   6.996  2.9774  0.1564 -0.1341
  110PVA    O1118636   1.032   5.980   6.942  0.3036 -0.0984 -0.1352
  110PVA    H6418637   0.995   5.978   7.032  2.0253 -1.6740  0.6169
  110PVA    C3318638   0.970   6.169   6.808 -0.9536 -0.2965 -0.5458
  110PVA    H6518639   0.892   6.203   6.877 -0.0052  0.9943 -0.0664
  110PVA    H6618640   0.940   6.083   6.746  1.2839 -0.0875 -2.0227
  110PVA    C3418641   1.005   6.310   6.738  0.4622  0.1186  1.1965
  110PVA    H6718642   1.112   6.333   6.734  0.3622  0.5473  0.8166
  110PVA    H6818643   0.975   6.394   6.802  0.4212  0.9611  0.1026
  110PVA    C3518644   0.921   6.338   6.609  0.3596  0.5452 -1.0708
  110PVA    H6918645   0.830   6.365   6.664  1.1664 -0.3734  0.8138
  110PVA    O1218646   0.916   6.224   6.524 -0.5944  0.0181 -0.0220
  110PVA    H7018647   0.824   6.206   6.498 -0.5089  1.2727 -1.2941
  110PVA    C3618648   0.976   6.475   6.546  1.7710 -0.2877 -1.0148
  110PVA    H7118649   0.948   6.548   6.624 -1.1499  0.5781 -2.6922
  110PVA    H7218650   1.085   6.485   6.539  1.7148  1.4448 -0.1638
  110PVA    C3718651   0.896   6.515   6.415 -0.5930 -0.6057  0.6013
  110PVA    H7318652   0.790   6.491   6.428 -1.6380  2.1727 -1.9648
  110PVA    H7418653   0.924   6.450   6.331 -0.7027 -0.1703  0.2275
  110PVA    C3818654   0.925   6.651   6.344  0.7049 -0.1473  1.0634
  110PVA    H7518655   0.895   6.642   6.239 -0.0040  2.3254  0.9879
  110PVA    O1318656   1.066   6.683   6.375 -0.7756  0.1431  0.1500
  110PVA    H7618657   1.104   6.606   6.330 -0.1619 -0.5069  1.7108
  110PVA    C3918658   0.831   6.750   6.413  0.1053  0.2732  1.2370
  110PVA    H7718659   0.850   6.741   6.521 -0.7475  2.0104  1.5764
  110PVA    H7818660   0.726   6.719   6.409  0.5842 -1.7179 -4.2227
  110PVA    C4018661   0.826   6.897   6.367  0.4981 -1.4440 -0.0153
  110PVA    H7918662   0.896   6.896   6.282  2.5350 -0.8977  1.5811
  110PVA    H8018663   0.731   6.940   6.332  1.8778  1.3447 -0.6526
  110PVA    C4118664   0.893   6.991   6.460 -1.3240 -0.5165 -0.3788
  110PVA    H8118665   0.831   6.995   6.550 -2.1951  2.6968 -0.9829
  110PVA    O1418666   1.034   6.959   6.483  0.0886  0.5897  0.8915
  110PVA    H8218667   1.025   6.867   6.453 -2.1439  0.5412  1.5399
  110PVA    C4218668   0.893   7.130   6.392  0.4345  0.2547  0.2111
  110PVA    H8318669   0.951   7.113   6.300  2.0337 -0.2251  1.2513
  110PVA    H8418670   0.790   7.149   6.359  0.5105 -0.9536 -0.7951
  110PVA    C4318671   0.956   7.248   6.472  2.0317 -0.5600 -0.2969
  110PVA    H8518672   1.054   7.207   6.499  1.2382 -1.3677  1.6313
  110PVA    H8618673   0.896   7.259   6.564 -1.4705  3.4114 -2.6730
  110PVA    C4418674   0.972   7.377   6.379 -0.0065  0.3164 -0.1057
  110PVA    H8718675   0.883   7.437   6.361  0.3855  0.7735 -0.5347
  110PVA    O1518676   1.020   7.351   6.249  0.0534  0.3097  0.8497
  110PVA    H8818677   0.976   7.264   6.246  2.6615 -1.2750  3.3235
  110PVA    C4518678   1.070   7.483   6.445 -1.0078  0.5732 -0.6776
  110PVA    H8918679   1.076   7.573   6.382  2.2683  0.4950 -0.6597
  110PVA    H9018680   1.170   7.440   6.457 -0.9617  1.2601  1.9168
  110PVA    C4618681   1.024   7.522   6.595 -0.4945  0.9989  0.1244
  110PVA    H9118682   1.040   7.427   6.648  0.2374  1.4969  0.8137
  110PVA    H9218683   1.094   7.601   6.624  2.7325 -1.2979 -0.8822
  110PVA    C4718684   0.882   7.577   6.607  0.5771 -0.9309  0.1477
  110PVA    H9318685   0.861   7.642   6.521 -0.8935 -0.6249  0.7084
  110PVA    O1618686   0.783   7.478   6.631  0.0080  0.9663  0.3368
  110PVA    H9418687   0.808   7.451   6.721  1.4268  0.6304 -0.1206
  110PVA    C4818688   0.873   7.672   6.728 -0.1635 -0.8887  1.3506
  110PVA    H9518689   0.891   7.619   6.823  3.9494 -0.5957  0.8918
  110PVA    H9618690   0.964   0.047   6.732 -1.0496  0.4662  2.1851
  110PVA    C4918691   0.748   0.070   6.738  0.9326  0.1631 -0.4619
  110PVA    H9718692   0.655   0.012   6.739  1.5220 -1.1071  4.0394
  110PVA    H9818693   0.745   0.139   6.653  1.0862 -1.3332 -1.7113
  110PVA    C5018694   0.768   0.168   6.865  0.2121 -0.3914 -0.7173
  110PVA    H9918695   0.795   0.099   6.946  3.8041  2.4250  0.7736
  110PVA    O1718696   0.880   0.253   6.843  0.0672  0.7015  1.0779
  110PVA   H10018697   0.848   0.329   6.791 -1.9793 -1.7013 -1.4628
  110PVA    C5118698   0.634   0.238   6.893  0.3007  0.0113  0.5856
  110PVA   H10118699   0.647   0.313   6.972  0.0429  0.3178  0.3409
  110PVA   H10218700   0.555   0.169   6.925  2.6936 -3.8425 -1.0541
  111PVA     C118701   1.652   3.933   5.435 -0.1715 -0.4933 -0.4033
  111PVA     H118702   1.578   3.997   5.484  0.0000  0.4435 -1.3370
  111PVA     H218703   1.749   3.948   5.484 -0.5066 -2.7739  1.1649
  111PVA     C218704   1.648   3.999   5.295  0.1703 -0.3822  0.5675
  111PVA     H318705   1.653   3.909   5.232 -3.9533  0.8069 -1.8504
  111PVA     O118706   1.766   4.086   5.295  0.7875  0.0747  0.0505
  111PVA     H418707   1.765   4.166   5.350 -0.8508  2.2045 -2.7682
  111PVA     C318708   1.521   4.085   5.241 -0.9167 -0.1691 -0.2002
  111PVA     H518709   1.436   4.017   5.228  0.8414 -3.5682  3.6300
  111PVA     H618710   1.492   4.156   5.319 -3.0119  2.3511 -3.0271
  111PVA     C418711   1.561   4.159   5.111  0.5609  0.1586 -0.1645
  111PVA     H718712   1.576   4.086   5.030 -2.8167 -0.2381 -0.5896
  111PVA     H818713   1.652   4.216   5.130  0.3718 -0.2270  2.1431
  111PVA     C518714   1.451   4.250   5.044 -0.9699  0.0327  0.2634
  111PVA     H918715   1.407   4.304   5.129 -0.8720 -2.2590  1.8457
  111PVA     O218716   1.362   4.169   4.998 -0.3814  0.2544 -0.2687
  111PVA    H1018717   1.274   4.205   4.978 -0.6272  1.4520  2.4419
  111PVA     C618718   1.492   4.344   4.939  0.9229  0.2826  1.1513
  111PVA    H1118719   1.414   4.418   4.921  2.6902  2.7477  2.9719
  111PVA    H1218720   1.585   4.393   4.969 -0.1710 -0.2527  6.2767
  111PVA     C718721   1.528   4.271   4.805  0.0875  0.5046  0.6306
  111PVA    H1318722   1.472   4.181   4.776  1.9296  1.2253 -7.4891
  111PVA    H1418723   1.629   4.237   4.830  0.8688  0.0256 -2.7887
  111PVA     C818724   1.535   4.360   4.669  0.4600  1.3059 -0.9390
  111PVA    H1518725   1.430   4.392   4.663 -0.4127 -0.7516  1.4420
  111PVA     O318726   1.632   4.463   4.698 -0.7888  0.8158  0.7649
  111PVA    H1618727   1.684   4.455   4.779  6.3668  1.7870 -2.9679
  111PVA     C918728   1.579   4.278   4.540  1.3880 -0.1700 -0.0976
  111PVA    H1718729   1.506   4.196   4.536  1.6535 -0.3750 -1.7529
  111PVA    H1818730   1.684   4.253   4.560  1.5003  0.5237  0.1980
  111PVA    C1018731   1.567   4.350   4.408 -0.2135 -1.2049 -0.0940
  111PVA    H1918732   1.460   4.373   4.410  0.5335  3.3227 -1.6276
  111PVA    H2018733   1.621   4.443   4.390 -2.9071  0.8632  1.6829
  111PVA    C1118734   1.587   4.266   4.268  0.1903  0.2024 -0.2788
  111PVA    H2118735   1.690   4.229   4.264 -0.1306 -0.5940 -2.0689
  111PVA     O418736   1.490   4.154   4.245  0.3815 -0.1541 -0.0209
  111PVA    H2218737   1.526   4.078   4.292  0.1913 -0.4242 -0.3063
  111PVA    C1218738   1.558   4.371   4.154 -0.5039 -0.6780 -0.8522
  111PVA    H2318739   1.450   4.390   4.157  0.0061  2.9530 -1.4041
  111PVA    H2418740   1.601   4.466   4.189  1.6908 -1.6893 -0.6346
  111PVA    C1318741   1.611   4.324   4.008  0.2828  0.1351  1.5440
  111PVA    H2518742   1.560   4.227   4.008 -1.2488  0.9040  1.0335
  111PVA    H2618743   1.720   4.307   4.005  0.1831 -1.0772 -2.6880
  111PVA    C1418744   1.552   4.408   3.885  0.3283 -0.1540 -0.7765
  111PVA    H2718745   1.567   4.514   3.909  2.1946 -0.9427  2.1189
  111PVA     O518746   1.413   4.384   3.870  0.2265  0.0150  0.0589
  111PVA    H2818747   1.385   4.292   3.880 -1.0100  0.0085 -2.6033
  111PVA    C1518748   1.618   4.368   3.750  0.4387  0.5628 -0.7005
  111PVA    H2918749   1.582   4.265   3.742 -0.4883  0.5850  2.2393
  111PVA    H3018750   1.726   4.355   3.766 -0.3922 -1.9644  5.3260
  111PVA    C1618751   1.591   4.461   3.630  0.3515 -0.6825  1.1716
  111PVA    H3118752   1.484   4.482   3.638  0.2754 -1.1781  1.4745
  111PVA    H3218753   1.640   4.559   3.621  2.1099 -1.6761 -3.9550
  111PVA    C1718754   1.643   4.397   3.497  0.4174  1.0716 -0.3150
  111PVA    H3318755   1.749   4.389   3.527 -0.1444 -2.4195  1.2185
  111PVA     O618756   1.591   4.264   3.482  0.7842  0.3061  0.0895
  111PVA    H3418757   1.556   4.239   3.569 -1.1974 -1.2387 -1.0559
  111PVA    C1818758   1.621   4.487   3.369 -0.0416 -0.6445 -0.0669
  111PVA    H3518759   1.538   4.435   3.319  0.3315 -1.2219 -0.0834
  111PVA    H3618760   1.563   4.578   3.392  0.8428 -0.6667  2.6849
  111PVA    C1918761   1.744   4.540   3.277  0.8639  0.8046 -0.6736
  111PVA    H3718762   1.803   4.449   3.269  1.3311  1.2056 -2.0794
  111PVA    H3818763   1.801   4.622   3.323  2.0253 -0.7692  0.8431
  111PVA    C2018764   1.704   4.567   3.131  1.6078  0.5650 -0.3590
  111PVA    H3918765   1.654   4.479   3.090 -1.5614  1.8229  0.4996
  111PVA     O718766   1.606   4.664   3.127  1.0444 -1.0452  0.2565
  111PVA    H4018767   1.653   4.746   3.148  0.8590 -0.2762 -2.0457
  111PVA    C2118768   1.823   4.620   3.041  0.8052  0.0834  0.5342
  111PVA    H4118769   1.880   4.685   3.108 -2.0093  1.2656  1.9071
  111PVA    H4218770   1.776   4.690   2.971  2.0629  0.6876  0.2669
  111PVA    C2218771   1.904   4.511   2.957  0.1080  0.6562  0.8966
  111PVA    H4318772   1.907   4.425   3.025 -1.7429 -2.9368 -3.1189
  111PVA    H4418773   1.828   4.493   2.880 -3.8589  0.3281  4.4866
  111PVA    C2318774   2.048   4.560   2.902  0.2254  0.8681 -0.6661
  111PVA    H4518775   2.089   4.613   2.988  0.2233 -1.5629  0.9252
  111PVA     O818776   2.031   4.642   2.788 -0.2454 -0.2607  0.7306
  111PVA    H4618777   2.021   4.733   2.823 -0.6012  2.1126 -4.4919
  111PVA    C2418778   2.143   4.448   2.847  0.4488 -0.0562 -0.3153
  111PVA    H4718779   2.125   4.365   2.917 -1.9632  1.6590  1.2664
  111PVA    H4818780   2.109   4.426   2.746 -3.4867  3.5171 -0.0779
  111PVA    C2518781   2.296   4.504   2.839  0.9713  0.5974  0.2407
  111PVA    H4918782   2.315   4.595   2.896  1.3925  0.4012  0.4184
  111PVA    H5018783   2.334   4.539   2.742 -0.7334  1.5676 -0.1112
  111PVA    C2618784   2.404   4.396   2.890 -0.9978 -0.4711 -0.0059
  111PVA    H5118785   2.421   4.326   2.807  1.3363 -0.2145  0.2159
  111PVA     O918786   2.356   4.315   2.993 -0.4065  0.4480  0.4501
  111PVA    H5218787   2.417   4.300   3.067 -2.4791  2.3120  2.7202
  111PVA    C2718788   2.534   4.454   2.933 -0.5098  0.5849 -0.3629
  111PVA    H5318789   2.518   4.483   3.038 -1.3268  4.6321 -1.4182
  111PVA    H5418790   2.552   4.555   2.895  0.5089  0.3763 -0.4849
  111PVA    C2818791   2.663   4.361   2.912 -0.6218 -1.3305  0.6659
  111PVA    H5518792   2.645   4.262   2.954  1.1908 -0.5576  3.4825
  111PVA    H5618793   2.688   4.365   2.805  1.1202 -1.9197  1.0210
  111PVA    C2918794   2.788   4.399   2.999 -0.9204 -1.2651 -0.1441
  111PVA    H5718795   2.772   4.359   3.100  5.3168 -1.5848  1.1154
  111PVA    O1018796   2.795   4.541   2.987  1.0463 -0.8119 -0.3587
  111PVA    H5818797   2.841   4.584   3.062  0.0296  0.6720 -0.5442
  111PVA    C3018798   2.929   4.351   2.960 -0.6324  0.4227  0.9258
  111PVA    H5918799   2.928   4.242   2.945 -2.5339  0.7107 -1.6993
  111PVA    H6018800   2.990   4.371   3.049 -1.2122 -2.7258  2.1561
  111PVA    C3118801   3.002   4.401   2.835 -0.1943  0.1511 -0.3378
  111PVA    H6118802   2.965   4.338   2.753 -0.4241  0.0111 -0.1282
  111PVA    H6218803   2.972   4.506   2.826 -0.4216  0.0630 -0.6380
  111PVA    C3218804   3.154   4.419   2.830  0.2054  0.5805  0.1844
  111PVA    H6318805   3.175   4.496   2.905  1.3980 -2.4735  3.2900
  111PVA    O1118806   3.201   4.304   2.882  0.4087 -0.5452  0.7094
  111PVA    H6418807   3.117   4.257   2.897  0.1448  0.1599  1.4673
  111PVA    C3318808   3.213   4.443   2.688  0.9872  0.5475 -0.0060
  111PVA    H6518809   3.157   4.527   2.646 -1.3722 -0.5342  0.7794
  111PVA    H6618810   3.202   4.348   2.633  1.5149  0.9275 -0.7999
  111PVA    C3418811   3.378   4.476   2.666  0.8537  0.2160  1.0946
  111PVA    H6718812   3.428   4.458   2.762 -1.2180  1.6049  2.5269
  111PVA    H6818813   3.405   4.398   2.593  0.1022  0.9894 -0.0398
  111PVA    C3518814   3.417   4.631   2.639  0.1022 -0.5719  0.1901
  111PVA    H6918815   3.403   4.683   2.734  2.3315 -0.8537  0.7307
  111PVA    O1218816   3.335   4.684   2.533  0.5028  0.5705  0.1467
  111PVA    H7018817   3.360   4.677   2.440 -2.1941  4.2535 -1.1205
  111PVA    C3618818   3.577   4.660   2.607 -0.2928 -0.5490  0.0696
  111PVA    H7118819   3.622   4.705   2.696 -0.3739 -2.6563  1.2423
  111PVA    H7218820   3.633   4.571   2.577  2.1517  1.2092 -0.8145
  111PVA    C3718821   3.576   4.768   2.507 -0.5283 -0.0762  0.0113
  111PVA    H7318822   3.509   4.849   2.539 -1.1425 -0.1442 -1.0384
  111PVA    H7418823   3.532   4.728   2.415 -4.2923 -4.4027  3.2888
  111PVA    C3818824   3.722   4.818   2.482 -0.0141 -0.2600 -0.5953
  111PVA    H7518825   3.803   4.744   2.482 -0.0296 -0.2795 -0.3922
  111PVA    O1318826   3.748   4.909   2.583 -0.9994 -0.7185 -0.6828
  111PVA    H7618827   3.698   4.879   2.661  2.0241 -1.1067  1.2849
  111PVA    C3918828   3.723   4.897   2.349 -0.5913  0.7565 -0.7022
  111PVA    H7718829   3.669   4.829   2.282 -2.0058  3.8650 -2.9131
  111PVA    H7818830   3.661   4.987   2.347 -1.9707 -0.1635 -2.7230
  111PVA    C4018831   3.872   4.928   2.301  0.6207  0.2093 -0.2112
  111PVA    H7918832   3.928   4.988   2.375  2.6730  0.1968 -1.6655
  111PVA    H8018833   3.927   4.833   2.305 -1.3718 -1.0151 -0.4542
  111PVA    C4118834   3.866   5.015   2.166  0.1888  0.4978  0.1268
  111PVA    H8118835   3.794   4.964   2.100  0.0136  0.4394  0.3634
  111PVA    O1418836   3.820   5.150   2.180 -0.5437  1.0798  0.4661
  111PVA    H8218837   3.762   5.155   2.258 -0.9565 -4.8247  1.0225
  111PVA    C4218838   4.010   5.001   2.085  1.4290  0.1925  0.5976
  111PVA    H8318839   4.045   4.900   2.111  1.4559  0.6766  2.6184
  111PVA    H8418840   4.087   5.075   2.106  1.0952 -0.1409  3.3638
  111PVA    C4318841   3.981   5.015   1.934  0.4501  1.1442  0.9752
  111PVA    H8518842   3.921   5.107   1.923  2.5251  2.5904  1.1454
  111PVA    H8618843   3.926   4.923   1.913  3.5331 -0.9092  1.2752
  111PVA    C4418844   4.101   5.026   1.833  0.8105  0.1214  0.3322
  111PVA    H8718845   4.131   5.131   1.833 -1.0233  0.6764 -0.1070
  111PVA    O1518846   4.061   4.987   1.705  0.1754 -0.0811 -0.5931
  111PVA    H8818847   3.994   4.921   1.727 -1.9642  2.6266  1.6623
  111PVA    C4518848   4.219   4.940   1.882  0.4342 -1.0521  0.4837
  111PVA    H8918849   4.270   4.987   1.966  0.1748 -2.0319  1.2116
  111PVA    H9018850   4.182   4.841   1.911 -2.4573 -0.6391 -1.3509
  111PVA    C4618851   4.325   4.920   1.771 -0.7008  0.1991 -0.7078
  111PVA    H9118852   4.372   5.011   1.733  1.2028 -1.0041 -1.3408
  111PVA    H9218853   4.277   4.887   1.678 -1.4984  2.4529 -1.1809
  111PVA    C4718854   4.447   4.816   1.809 -0.0097  0.1068  0.2553
  111PVA    H9318855   4.486   4.843   1.907  5.9186  4.3223 -2.6357
  111PVA    O1618856   4.402   4.687   1.814 -0.0809  1.6002 -0.8126
  111PVA    H9418857   4.343   4.661   1.741 -0.9164  2.8922 -0.6325
  111PVA    C4818858   4.563   4.818   1.710  0.2005  0.9250 -0.6799
  111PVA    H9518859   4.540   4.897   1.638 -0.3869  0.1119 -1.4060
  111PVA    H9618860   4.642   4.876   1.760  0.3244  2.0036 -2.0663
  111PVA    C4918861   4.617   4.687   1.659  0.1129  0.8372  0.6846
  111PVA    H9718862   4.530   4.640   1.611 -0.1695  2.8259 -0.8638
  111PVA    H9818863   4.662   4.627   1.739  0.9662  2.7158  1.6568
  111PVA    C5018864   4.741   4.688   1.550 -0.3577  0.8230 -0.0644
  111PVA    H9918865   4.721   4.768   1.479 -2.0854 -0.2219 -0.8209
  111PVA    O1718866   4.870   4.718   1.601  1.4970  1.6154  0.4046
  111PVA   H10018867   4.914   4.755   1.523  3.1582  0.0524  0.5167
  111PVA    C5118868   4.738   4.549   1.464  0.0602  0.6254 -0.0315
  111PVA   H10118869   4.637   4.522   1.430  1.8665 -2.9700 -3.2464
  111PVA   H10218870   4.760   4.471   1.538 -0.6925  0.2692 -0.1688
  112PVA     C118871   0.974   1.118   6.389 -0.0558 -0.5291 -0.1020
  112PVA     H118872   1.055   1.180   6.429 -0.1288  0.8356 -1.9261
  112PVA     H218873   0.994   1.128   6.282 -0.1133 -1.6997 -0.2428
  112PVA     C218874   0.846   1.201   6.418  0.1327 -0.1250 -0.4898
  112PVA     H318875   0.867   1.243   6.517 -0.4571 -0.2605 -0.3027
  112PVA     O118876   0.732   1.119   6.411  1.0207  0.4000  0.5618
  112PVA     H418877   0.764   1.032   6.438 -1.7780 -0.5812  1.0405
  112PVA     C318878   0.835   1.327   6.321 -0.0449  0.2608  0.1734
  112PVA     H518879   0.923   1.391   6.339 -2.4651  4.0541 -0.3874
  112PVA     H618880   0.831   1.300   6.214  0.7509  2.6008 -0.5107
  112PVA     C418881   0.712   1.427   6.363 -0.8824 -1.0403 -0.3044
  112PVA     H718882   0.705   1.455   6.469 -2.3851  1.3958 -0.9418
  112PVA     H818883   0.616   1.373   6.358 -1.1221 -0.6676  0.1947
  112PVA     C518884   0.717   1.554   6.267 -1.4563 -0.1597  0.8712
  112PVA     H918885   0.693   1.512   6.169  2.3054  1.4243 -0.9293
  112PVA     O218886   0.841   1.624   6.273 -0.4343 -0.5900 -0.2238
  112PVA    H1018887   0.829   1.678   6.353 -2.5341  0.8600 -1.4494
  112PVA     C618888   0.611   1.659   6.299  0.4484 -0.0757  0.1756
  112PVA    H1118889   0.512   1.621   6.328  1.2245  0.6056  4.2559
  112PVA    H1218890   0.643   1.698   6.396  0.3722  1.6914 -0.4807
  112PVA     C718891   0.600   1.790   6.208 -0.2075 -0.5587 -0.9683
  112PVA    H1318892   0.689   1.853   6.221 -0.5408 -0.5281  1.7963
  112PVA    H1418893   0.583   1.770   6.102 -2.6354 -0.4538 -0.6598
  112PVA     C818894   0.479   1.885   6.241 -0.8148  0.8101  0.6561
  112PVA    H1518895   0.478   1.931   6.141  1.4377 -0.2735  0.0537
  112PVA     O318896   0.343   1.834   6.255  0.0496 -1.2334  0.2519
  112PVA    H1618897   0.317   1.867   6.343 -1.3200  1.5402 -1.0371
  112PVA     C918898   0.517   2.007   6.338  0.2280 -0.6294  0.8242
  112PVA    H1718899   0.565   2.091   6.286 -2.3902 -0.4198 -1.4917
  112PVA    H1818900   0.599   1.973   6.403 -0.7284 -1.8913  1.4091
  112PVA    C1018901   0.398   2.082   6.423 -0.4709 -0.0180 -0.0213
  112PVA    H1918902   0.300   2.051   6.385  0.3276 -1.2186 -1.1803
  112PVA    H2018903   0.402   2.044   6.526 -2.2458  1.8334  0.8034
  112PVA    C1118904   0.402   2.235   6.427  0.0939 -0.3446  0.6111
  112PVA    H2118905   0.507   2.259   6.449 -0.0409 -0.6344  1.6625
  112PVA     O418906   0.368   2.308   6.309 -0.1182  0.4694 -0.5051
  112PVA    H2218907   0.413   2.394   6.307  1.8179 -0.4911 -0.7436
  112PVA    C1218908   0.308   2.302   6.536 -0.2075  1.1820  0.4244
  112PVA    H2318909   0.201   2.292   6.511 -0.1093  0.4619  0.2717
  112PVA    H2418910   0.324   2.255   6.634  0.0038 -2.0282 -1.0257
  112PVA    C1318911   0.344   2.456   6.548  0.3785 -0.8047 -0.0242
  112PVA    H2518912   0.286   2.513   6.474  2.6633  0.9000 -0.6262
  112PVA    H2618913   0.450   2.459   6.517  0.9263  0.4981  1.8290
  112PVA    C1418914   0.336   2.527   6.697 -0.5805  0.1519  1.2990
  112PVA    H2718915   0.423   2.593   6.697 -0.5506  0.1453  2.8295
  112PVA     O518916   0.337   2.435   6.795 -0.0925 -0.1906  0.2566
  112PVA    H2818917   0.340   2.483   6.879 -1.3428 -3.0820  2.1015
  112PVA    C1518918   0.199   2.603   6.699  0.2257 -0.5999 -1.0277
  112PVA    H2918919   0.110   2.540   6.684  1.2183 -2.1046 -0.8283
  112PVA    H3018920   0.199   2.678   6.619  2.7364  1.2008  0.5006
  112PVA    C1618921   0.180   2.671   6.830  0.6853  0.3229  0.7659
  112PVA    H3118922   0.210   2.614   6.919 -5.3910 -1.2742  2.2142
  112PVA    H3218923   0.269   2.735   6.828  0.2596  0.9914 -2.8333
  112PVA    C1718924   0.055   2.758   6.848 -0.2852  0.0735  0.2407
  112PVA    H3318925   0.072   2.862   6.878  1.8315  0.8496 -3.1006
  112PVA     O618926   7.733   2.763   6.723 -0.3898  0.3328  0.7549
  112PVA    H3418927   7.703   2.692   6.664 -0.3312  2.7744 -2.5083
  112PVA    C1818928   7.733   2.684   6.949 -1.0911  0.6925 -0.2475
  112PVA    H3518929   7.682   2.600   6.901 -1.2866  0.9693 -0.5269
  112PVA    H3618930   0.020   2.651   7.040 -4.0289 -1.2737  0.9057
  112PVA    C1918931   7.616   2.776   7.006  0.4020 -0.5813  0.7239
  112PVA    H3718932   7.564   2.825   6.923 -1.8567 -1.0334  1.7793
  112PVA    H3818933   7.655   2.842   7.084  2.2265 -3.4742  2.4395
  112PVA    C2018934   7.489   2.729   7.081  0.2003 -1.0372 -0.3833
  112PVA    H3918935   7.503   2.725   7.190  1.4071 -0.9896 -0.5274
  112PVA     O718936   7.457   2.599   7.033 -0.8660  0.8320  0.4356
  112PVA    H4018937   7.401   2.549   7.095  1.7040 -0.2888  2.0018
  112PVA    C2118938   7.371   2.835   7.053 -0.3544 -0.3067 -0.3834
  112PVA    H4118939   7.349   2.845   6.946 -1.6136 -0.4250 -0.1507
  112PVA    H4218940   7.411   2.933   7.078 -2.3116  0.5944 -0.5889
  112PVA    C2218941   7.240   2.803   7.139 -0.4729  1.1106  0.5229
  112PVA    H4318942   7.187   2.707   7.135  0.3927  0.5858  1.1309
  112PVA    H4418943   7.270   2.811   7.244  2.3293 -0.3143 -0.0559
  112PVA    C2318944   7.141   2.910   7.105 -0.0217 -0.3924  0.2185
  112PVA    H4518945   7.200   3.002   7.099 -1.0245  0.4215  1.9572
  112PVA     O818946   7.073   2.904   6.979  0.5373  0.0536  0.1272
  112PVA    H4618947   7.010   2.829   6.984  3.5178 -3.3318 -4.4872
  112PVA    C2418948   7.032   2.921   7.222 -0.1660  0.8668  0.3880
  112PVA    H4718949   6.972   2.830   7.237  1.5712 -0.3859  0.1351
  112PVA    H4818950   7.086   2.948   7.314  1.9723 -0.5343 -0.3511
  112PVA    C2518951   6.955   3.050   7.192  0.6566  0.8969 -0.1936
  112PVA    H4918952   6.880   3.040   7.113 -0.9812 -2.2404  1.5683
  112PVA    H5018953   7.017   3.134   7.159 -2.0146  2.8652 -0.4777
  112PVA    C2618954   6.882   3.108   7.330 -0.3247  0.6850  0.6749
  112PVA    H5118955   6.941   3.113   7.423 -0.6390  2.4366  0.8054
  112PVA     O918956   6.763   3.043   7.374  0.3469 -0.0964  0.1729
  112PVA    H5218957   6.783   2.948   7.371 -0.1871 -0.1842 -1.5284
  112PVA    C2718958   6.861   3.251   7.300  0.0022 -0.8630 -0.0776
  112PVA    H5318959   6.955   3.307   7.301  1.1667 -2.7056  1.1281
  112PVA    H5418960   6.818   3.254   7.200 -1.6328 -1.9753  0.5400
  112PVA    C2818961   6.763   3.335   7.397  0.6367  1.4547  0.4283
  112PVA    H5518962   6.764   3.297   7.500 -2.5872 -1.5057 -0.4431
  112PVA    H5618963   6.669   3.304   7.349  1.0150  2.2262 -0.8647
  112PVA    C2918964   6.776   3.484   7.391  1.6503 -0.4210 -0.9277
  112PVA    H5718965   6.769   3.528   7.290 -4.2376  0.6471 -0.4094
  112PVA    O1018966   6.888   3.531   7.464  0.5008 -0.8187 -0.3021
  112PVA    H5818967   6.885   3.499   7.556  1.1237  3.4932  1.4418
  112PVA    C3018968   6.649   3.550   7.463 -0.4323 -0.2303 -0.6137
  112PVA    H5918969   6.556   3.505   7.426 -0.6749  0.3138 -0.6660
  112PVA    H6018970   6.653   3.530   7.571 -3.1775  3.8404  0.4658
  112PVA    C3118971   6.633   3.710   7.443 -0.2979  0.8643 -0.2828
  112PVA    H6118972   6.609   3.728   7.337 -0.1741 -0.2909 -0.5256
  112PVA    H6218973   6.729   3.754   7.470  0.7289 -1.3324 -0.1165
  112PVA    C3218974   6.525   3.770   7.536  0.6378 -0.0551 -0.1693
  112PVA    H6318975   6.568   3.752   7.635 -4.3501  1.8732  2.7225
  112PVA    O1118976   6.514   3.909   7.500 -1.2713  0.2124  0.9389
  112PVA    H6418977   6.592   3.952   7.540 -0.8507  1.5647 -1.1641
  112PVA    C3318978   6.381   3.702   7.545 -0.3424 -0.1409 -1.3947
  112PVA    H6518979   6.384   3.593   7.536  1.3446 -0.0255 -2.6029
  112PVA    H6618980   6.319   3.731   7.460 -1.4197 -3.1282 -1.7357
  112PVA    C3418981   6.300   3.764   7.664 -0.2750 -0.1523 -0.0785
  112PVA    H6718982   6.372   3.791   7.741 -2.2151  4.6941  0.3554
  112PVA    H6818983   6.256   3.853   7.617  3.7795  2.0340 -0.2090
  112PVA    C3518984   6.182   3.680   7.727 -1.1299  0.4488 -0.0964
  112PVA    H6918985   6.104   3.680   7.650 -1.0601  2.1653 -0.2106
  112PVA    O1218986   6.238   3.548   7.759  0.8958 -0.6184 -0.0503
  112PVA    H7018987   6.333   3.555   7.776  0.6029 -1.0600  1.9242
  112PVA    C3618988   6.111   3.758   7.839 -0.8922 -0.9644 -1.0436
  112PVA    H7118989   6.179   3.765   7.925 -1.7393  1.0537 -0.4543
  112PVA    H7218990   6.095   3.862   7.805 -1.0362 -0.7575 -0.3691
  112PVA    C3718991   5.987   3.693   7.902  0.2386 -0.9695  0.7825
  112PVA    H7318992   6.010   3.600   7.956  0.5490 -3.0967 -2.6777
  112PVA    H7418993   5.941   3.656   7.809  2.5775 -1.0218 -0.4208
  112PVA    C3818994   5.911   3.792   7.981  0.0119 -0.8356 -0.4720
  112PVA    H7518995   5.914   3.890   7.933 -3.0496 -0.4614 -0.1223
  112PVA    O1318996   5.979   3.801   0.010  0.1571  0.2030 -0.2009
  112PVA    H7618997   6.068   3.764   0.003 -0.2988 -0.6594 -2.4027
  112PVA    C3918998   5.759   3.761   7.996  1.2308  0.5266 -0.6928
  112PVA    H7718999   5.741   3.657   8.025  1.0242  0.8903  0.5368
  112PVA    H7819000   5.710   3.761   7.898 -3.5674  0.4473  1.4258
  112PVA    C4019001   5.664   3.858   8.068 -1.3071 -0.6684 -0.4203
  112PVA    H7919002   5.715   3.954   8.056 -1.6712  0.0350  2.7643
  112PVA    H8019003   5.565   3.868   8.022 -0.0115 -0.3776 -3.3724
  112PVA    C4119004   5.643   3.841   0.121 -0.6711 -0.2208  0.6937
  112PVA    H8119005   5.581   3.751   0.130 -1.6933  0.1975 -1.4501
  112PVA    O1419006   5.772   3.831   0.185  0.4214  0.8613  0.7456
  112PVA    H8219007   5.845   3.826   0.121  4.2692 -1.4616  4.7633
  112PVA    C4219008   5.562   3.958   0.187  0.6079  1.1530  0.3086
  112PVA    H8319009   5.595   4.062   0.182  0.8717  1.1051  0.9937
  112PVA    H8419010   5.463   3.951   0.141  0.2968  3.3465  0.5305
  112PVA    C4319011   5.535   3.934   0.336  0.0363 -0.3924  0.0018
  112PVA    H8519012   5.503   3.831   0.353 -0.0812 -0.5028 -0.8537
  112PVA    H8619013   5.626   3.970   0.386  0.4164  0.7917 -1.4578
  112PVA    C4419014   5.431   4.037   0.396  0.4424 -0.6345  0.0023
  112PVA    H8719015   5.493   4.122   0.429  0.4222 -2.1521  4.5566
  112PVA    O1519016   5.326   4.075   0.302 -0.5182  0.2994 -0.3491
  112PVA    H8819017   5.372   4.097   0.219 -0.0737  0.0061 -0.1878
  112PVA    C4519018   5.357   3.983   0.522 -0.0144 -1.3105  0.6919
  112PVA    H8919019   5.406   3.909   0.587  1.0896 -0.4830  0.8252
  112PVA    H9019020   5.267   3.926   0.496  0.3983 -1.4071 -0.5528
  112PVA    C4619021   5.317   4.100   0.619 -1.6011  0.3217  0.4081
  112PVA    H9119022   5.403   4.167   0.634 -2.5548  1.3157  1.7838
  112PVA    H9219023   5.248   4.174   0.577 -3.0853  0.2441  2.5410
  112PVA    C4719024   5.286   4.047   0.758 -1.3140 -1.1353 -0.3028
  112PVA    H9319025   5.200   3.980   0.752 -3.1275  0.6662  2.9122
  112PVA    O1619026   5.398   3.984   0.825  0.1652  0.0037  1.0009
  112PVA    H9419027   5.471   3.986   0.760  0.5544  1.9002  1.4559
  112PVA    C4819028   5.244   4.165   0.842  0.9223 -0.1715 -0.1958
  112PVA    H9519029   5.325   4.219   0.893 -1.1482  2.1168  0.8486
  112PVA    H9619030   5.195   4.239   0.777  0.1814 -1.5904 -1.2996
  112PVA    C4919031   5.128   4.127   0.946 -0.4569 -0.3674  0.5664
  112PVA    H9719032   5.123   4.028   0.991 -3.6596 -1.9770 -2.8591
  112PVA    H9819033   5.038   4.124   0.885  1.8463 -0.0841 -3.1829
  112PVA    C5019034   5.123   4.231   1.057  0.3024  0.4307  0.3057
  112PVA    H9919035   5.140   4.326   1.005 -0.4058  0.5295  0.2512
  112PVA    O1719036   5.227   4.196   1.143  0.2545  0.2064 -0.5766
  112PVA   H10019037   5.306   4.239   1.104  0.5464  2.1799  1.9062
  112PVA    C5119038   5.001   4.246   1.147  0.1967 -0.2973 -0.1710
  112PVA   H10119039   5.021   4.173   1.228  2.6207  0.1341 -0.3038
  112PVA   H10219040   4.905   4.205   1.113  0.6620 -1.9795  0.4222
  113PVA     C119041   1.265   0.731   6.342  0.4136  0.0312 -0.0451
  113PVA     H119042   1.232   0.742   6.238  0.2452  0.0518  0.0097
  113PVA     H219043   1.339   0.810   6.364  0.6564 -1.1166  3.9303
  113PVA     C219044   1.328   0.603   6.371 -1.2414 -0.3662  0.2794
  113PVA     H319045   1.246   0.530   6.369 -2.0516  0.4570 -2.5640
  113PVA     O119046   1.378   0.614   6.510  0.1433 -0.9054  0.4942
  113PVA     H419047   1.432   0.534   6.524 -0.7769 -1.9067 -1.2777
  113PVA     C319048   1.445   0.548   6.275  0.7028  0.8125  0.0211
  113PVA     H519049   1.432   0.557   6.166  2.5896 -3.0629 -0.7102
  113PVA     H619050   1.532   0.613   6.288  0.4041  1.7269 -2.1434
  113PVA     C419051   1.484   0.395   6.294  0.4099 -0.3348 -0.9621
  113PVA     H719052   1.395   0.332   6.308 -0.8840  1.5881 -0.0485
  113PVA     H819053   1.543   0.397   6.387 -1.8773 -0.9301  0.5820
  113PVA     C519054   1.571   0.339   6.184  0.1992 -0.2197 -0.5329
  113PVA     H919055   1.573   0.414   6.104 -1.5748 -0.7625 -1.1356
  113PVA     O219056   1.514   0.221   6.135 -0.6102 -0.0098 -0.4676
  113PVA    H1019057   1.575   0.166   6.083  1.6607 -0.6398  2.5327
  113PVA     C619058   1.724   0.330   6.221 -0.4944 -0.7099  0.6852
  113PVA    H1119059   1.733   0.260   6.306  0.0414 -1.4231  0.0579
  113PVA    H1219060   1.761   0.428   6.251  1.0073 -1.0531  0.0438
  113PVA     C719061   1.825   0.279   6.119  1.1581  1.6702  0.1293
  113PVA    H1319062   1.807   0.173   6.096 -0.9895  2.0513 -0.1160
  113PVA    H1419063   1.816   0.325   6.020 -0.1743 -3.2666 -2.3385
  113PVA     C819064   1.964   0.310   6.155  0.2207 -0.8481  0.5865
  113PVA    H1519065   1.983   0.286   6.261  0.5354  0.7364  0.9243
  113PVA     O319066   1.973   0.462   6.146 -0.6607  0.3542 -0.3466
  113PVA    H1619067   2.032   0.505   6.211 -1.7669  0.5180  0.5921
  113PVA     C919068   2.079   0.251   6.072  0.4090  0.6058 -0.4142
  113PVA    H1719069   2.049   0.242   5.967  2.1856 -0.9696 -0.8313
  113PVA    H1819070   2.098   0.146   6.096  1.9440  1.2685  1.5795
  113PVA    C1019071   2.220   0.312   6.092 -0.0164 -0.4529  1.0367
  113PVA    H1919072   2.236   0.406   6.037 -1.1967 -2.2483 -2.7819
  113PVA    H2019073   2.230   0.316   6.201 -1.8420  1.0963  1.2194
  113PVA    C1119074   2.335   0.225   6.033 -0.3672 -1.0004 -0.3539
  113PVA    H2119075   2.290   0.126   6.015 -1.6281 -0.5618  0.2719
  113PVA     O419076   2.356   0.290   5.906  0.0918  0.3870 -0.8466
  113PVA    H2219077   2.271   0.318   5.869  0.0055 -1.1643 -1.9326
  113PVA    C1219078   2.465   0.219   6.117  0.9406  0.7720  0.2062
  113PVA    H2319079   2.474   0.310   6.178 -1.8073  0.0693  1.8022
  113PVA    H2419080   2.449   0.125   6.173 -0.6149  2.3922  2.6869
  113PVA    C1319081   2.600   0.205   6.065  0.5752  0.7134 -0.7614
  113PVA    H2519082   2.624   0.281   5.990  3.5121  0.5147 -0.1589
  113PVA    H2619083   2.598   0.108   6.013 -2.3346  0.7180 -0.8557
  113PVA    C1419084   2.718   0.213   6.172  0.9735  0.0827  0.9220
  113PVA    H2719085   2.700   0.306   6.228  2.3830 -0.8842  3.1035
  113PVA     O519086   2.693   0.102   6.256  0.3869 -0.9468 -0.6722
  113PVA    H2819087   2.625   0.054   6.206 -0.5797  0.8136 -1.0960
  113PVA    C1519088   2.870   0.204   6.142 -0.7859  1.0486  0.0538
  113PVA    H2919089   2.897   0.277   6.064 -1.0045  0.6514 -0.3980
  113PVA    H3019090   2.905   0.105   6.111  0.6483  2.0895 -1.8799
  113PVA    C1619091   2.943   0.253   6.268 -1.7350 -0.6553 -0.5761
  113PVA    H3119092   2.918   0.360   6.278  1.8619  0.2450 -0.0544
  113PVA    H3219093   2.908   0.207   6.361  0.2927  2.8843  2.2053
  113PVA    C1719094   3.104   0.231   6.270 -0.3186  0.4640  0.3856
  113PVA    H3319095   3.146   0.304   6.201  2.0144 -1.8977 -0.8942
  113PVA     O619096   3.142   0.092   6.242 -0.9593 -0.5509 -0.4878
  113PVA    H3419097   3.125   0.038   6.321 -0.4673  0.5984  0.4389
  113PVA    C1819098   3.146   0.269   6.408  0.1629  0.8991  1.4224
  113PVA    H3519099   3.108   0.369   6.432  0.5069  1.6536 -0.9588
  113PVA    H3619100   3.092   0.197   6.471 -0.7193  1.4097  1.2726
  113PVA    C1919101   3.304   0.270   6.440  0.7081  0.2701 -0.1489
  113PVA    H3719102   3.325   0.176   6.493 -0.9950 -0.6623 -1.0561
  113PVA    H3819103   3.345   0.274   6.338 -0.5463 -0.0874 -0.6784
  113PVA    C2019104   3.360   0.390   6.518  0.1474 -0.3167  0.9147
  113PVA    H3919105   3.356   0.484   6.463  1.7452  1.4024  3.5184
  113PVA     O719106   3.272   0.439   6.622  1.3868  0.1906 -0.0433
  113PVA    H4019107   3.228   0.524   6.604  3.1782  0.8249 -1.7843
  113PVA    C2119108   3.497   0.363   6.579  0.4160 -0.0557  0.3527
  113PVA    H4119109   3.556   0.308   6.505 -3.1282 -0.1809 -2.6683
  113PVA    H4219110   3.489   0.289   6.660  2.8072 -0.3803  0.3660
  113PVA    C2219111   3.570   0.492   6.617 -0.7557 -0.4637 -0.2824
  113PVA    H4319112   3.547   0.546   6.525  1.3179  0.6019 -0.2251
  113PVA    H4419113   3.523   0.547   6.699  0.7406  0.0834  0.2293
  113PVA    C2319114   3.730   0.472   6.629  0.0096  0.3182  1.2421
  113PVA    H4519115   3.765   0.373   6.597  3.8943  1.7282  0.6018
  113PVA     O819116   3.744   0.477   6.770 -0.0785  0.0743 -0.0193
  113PVA    H4619117   3.673   0.428   6.816  0.0639 -0.5289 -0.4356
  113PVA    C2419118   3.801   0.585   6.561 -0.0391  0.2365 -0.2579
  113PVA    H4719119   3.738   0.609   6.473 -2.1225 -1.3490  0.7130
  113PVA    H4819120   3.795   0.671   6.629  1.5355  1.0878 -1.1487
  113PVA    C2519121   3.952   0.561   6.538 -1.0644 -0.8266 -0.1290
  113PVA    H4919122   3.961   0.488   6.457  0.6065  2.2275 -2.9429
  113PVA    H5019123   3.983   0.521   6.635 -2.9603 -0.8021  0.5432
  113PVA    C2619124   4.040   0.688   6.519  0.0339  0.3284 -0.3945
  113PVA    H5119125   3.988   0.784   6.529  3.6423  2.2159  3.1979
  113PVA     O919126   4.121   0.683   6.637  1.1829  0.1062 -0.2329
  113PVA    H5219127   4.118   0.760   6.696  0.3045 -1.3156  1.6852
  113PVA    C2719128   4.134   0.705   6.391  0.1853  0.4214  0.5334
  113PVA    H5319129   4.093   0.684   6.292  1.9734 -2.8749  0.3682
  113PVA    H5419130   4.214   0.633   6.413  0.7271  1.7432  3.3044
  113PVA    C2819131   4.196   0.852   6.401  0.8769 -0.6782 -0.0594
  113PVA    H5519132   4.265   0.870   6.484  3.5051  0.2303 -2.2684
  113PVA    H5619133   4.104   0.908   6.421  0.4758  0.0188 -3.2589
  113PVA    C2919134   4.266   0.918   6.276 -0.8086 -0.0044 -0.2491
  113PVA    H5719135   4.223   1.018   6.262 -3.6031 -0.7190  2.0941
  113PVA    O1019136   4.254   0.854   6.148 -0.4618 -0.0186 -0.5754
  113PVA    H5819137   4.216   0.916   6.084 -2.0999  0.5354  0.8696
  113PVA    C3019138   4.415   0.951   6.293 -0.0598 -0.3214  0.5154
  113PVA    H5919139   4.425   0.998   6.391 -2.3445 -2.5363  1.9082
  113PVA    H6019140   4.479   0.862   6.284  4.5533  2.5670  1.2948
  113PVA    C3119141   4.474   1.064   6.200  0.1177 -0.3653  0.5362
  113PVA    H6119142   4.445   1.166   6.227  1.1393  0.2747 -0.7136
  113PVA    H6219143   4.434   1.057   6.098 -3.3539  3.8733  1.2997
  113PVA    C3219144   4.626   1.033   6.182 -0.8929  0.8380  0.0578
  113PVA    H6319145   4.653   0.994   6.281  0.9758  1.5040 -0.1424
  113PVA    O1119146   4.657   0.944   6.076  0.4681  0.3225 -0.0159
  113PVA    H6419147   4.708   0.982   6.002  1.1476 -0.8025 -0.1478
  113PVA    C3319148   4.702   1.165   6.144  1.1458  0.8546  0.0259
  113PVA    H6519149   4.668   1.188   6.043 -2.0028  0.1304  0.7918
  113PVA    H6619150   4.670   1.233   6.224  1.2129  1.7481 -0.6915
  113PVA    C3419151   4.849   1.153   6.151  0.3574  0.1834 -0.2649
  113PVA    H6719152   4.899   1.124   6.244  4.9223  3.3900 -1.3626
  113PVA    H6819153   4.863   1.056   6.101  0.7693 -1.3705  2.6358
  113PVA    C3519154   4.914   1.268   6.074 -0.5075 -0.3197 -0.6785
  113PVA    H6919155   4.878   1.364   6.115 -1.7941  1.0555 -4.5490
  113PVA    O1219156   4.868   1.263   5.935 -0.9276 -0.6363  1.0336
  113PVA    H7019157   4.857   1.168   5.918 -0.0866 -0.7643  1.1775
  113PVA    C3619158   5.075   1.280   6.081  1.0672  0.0999 -0.1426
  113PVA    H7119159   5.081   1.292   6.189  0.6055 -2.3916  0.2213
  113PVA    H7219160   5.134   1.193   6.049  3.4651  1.8011 -0.5930
  113PVA    C3719161   5.129   1.400   5.998  0.5263 -0.6651 -0.4470
  113PVA    H7319162   5.068   1.492   5.998  0.8484 -0.4422 -1.2560
  113PVA    H7419163   5.123   1.359   5.896  0.2591 -1.4930 -0.1069
  113PVA    C3819164   5.273   1.444   6.044  0.3457 -1.2946  0.1069
  113PVA    H7519165   5.256   1.504   6.134 -1.9793 -2.0670  0.2395
  113PVA    O1319166   5.352   1.341   6.070  0.2176  0.8626  0.2221
  113PVA    H7619167   5.446   1.351   6.093  0.6479 -1.0745 -0.4805
  113PVA    C3919168   5.333   1.553   5.948 -0.0335 -0.5793 -0.1622
  113PVA    H7719169   5.263   1.594   5.874  4.1168  0.0712 -4.2473
  113PVA    H7819170   5.350   1.635   6.019  0.8037 -1.4288  0.6431
  113PVA    C4019171   5.469   1.546   5.870  0.1351 -0.2632  0.2270
  113PVA    H7919172   5.552   1.570   5.938 -0.5445 -1.9724  1.7171
  113PVA    H8019173   5.472   1.437   5.870  3.0346 -0.4011 -3.4653
  113PVA    C4119174   5.480   1.599   5.719  0.3232  0.8285 -0.6741
  113PVA    H8119175   5.401   1.558   5.656  2.4586  0.9466 -3.6148
  113PVA    O1419176   5.615   1.554   5.674  0.3001 -0.6195 -0.0211
  113PVA    H8219177   5.619   1.577   5.579 -2.9891  2.4696  0.3895
  113PVA    C4219178   5.479   1.750   5.690 -0.3517 -0.4690  0.3559
  113PVA    H8319179   5.483   1.811   5.782  2.5094  0.3670 -0.2433
  113PVA    H8419180   5.573   1.765   5.636 -1.2181 -0.7657 -1.3034
  113PVA    C4319181   5.358   1.805   5.612 -0.2322  0.2687  1.0087
  113PVA    H8519182   5.257   1.772   5.640 -0.2192 -1.1053 -0.3668
  113PVA    H8619183   5.369   1.749   5.518  0.2980 -2.0158  2.3708
  113PVA    C4419184   5.356   1.957   5.567  0.3730 -0.0017 -0.8830
  113PVA    H8719185   5.448   1.975   5.510  0.7205  3.3660  0.4864
  113PVA    O1519186   5.255   2.001   5.479 -0.1596 -0.0453  1.1735
  113PVA    H8819187   5.266   2.096   5.496 -3.5277  0.9564 -1.1323
  113PVA    C4519188   5.370   2.064   5.678 -0.0071 -0.0662 -0.0584
  113PVA    H8919189   5.428   2.029   5.764  3.7289 -1.0759 -2.7419
  113PVA    H9019190   5.272   2.104   5.707  0.6392  1.7004 -0.1975
  113PVA    C4619191   5.448   2.191   5.632  0.7713  0.0712 -1.0430
  113PVA    H9119192   5.551   2.163   5.608  0.0895 -3.7986 -0.1745
  113PVA    H9219193   5.398   2.222   5.540  2.4882  4.5492 -0.7090
  113PVA    C4719194   5.462   2.312   5.719 -1.4398 -0.3374  0.1339
  113PVA    H9319195   5.370   2.336   5.773 -0.4762 -1.4109  2.4217
  113PVA    O1619196   5.540   2.286   5.831 -0.9411 -0.9566  0.5785
  113PVA    H9419197   5.549   2.366   5.886 -0.0797  1.0988 -2.3331
  113PVA    C4819198   5.518   2.438   5.652  0.3665  0.9183  1.2290
  113PVA    H9519199   5.462   2.448   5.558 -2.0802 -6.4714  1.2337
  113PVA    H9619200   5.618   2.423   5.609 -0.1724  1.7090 -0.3843
  113PVA    C4919201   5.511   2.577   5.722 -0.4640 -0.3480  0.5830
  113PVA    H9719202   5.483   2.540   5.822  0.1268 -0.0136  0.8776
  113PVA    H9819203   5.610   2.624   5.719 -0.9599  0.6799 -0.5923
  113PVA    C5019204   5.414   2.678   5.662 -0.3336  0.4597 -0.4151
  113PVA    H9919205   5.381   2.650   5.561  0.2136  3.6085 -1.5678
  113PVA    O1719206   5.306   2.691   5.750 -0.7022  0.1310 -0.2950
  113PVA   H10019207   5.292   2.613   5.808 -4.5372  3.0534  3.3134
  113PVA    C5119208   5.480   2.807   5.622 -0.5886  0.2871 -0.3723
  113PVA   H10119209   5.529   2.851   5.709  2.1813 -4.7167  1.0472
  113PVA   H10219210   5.574   2.797   5.567 -0.1780  2.2761 -0.1007
  114PVA     C119211   4.984   5.064   0.531  0.8144 -0.4835 -0.1819
  114PVA     H119212   4.909   5.107   0.600 -1.9832  0.3413 -3.4509
  114PVA     H219213   4.938   5.039   0.434 -1.5323 -1.9823  1.2076
  114PVA     C219214   5.076   5.178   0.503  0.1555  0.6302  0.4921
  114PVA     H319215   5.144   5.153   0.421  0.7033  0.9574  0.8377
  114PVA     O119216   5.154   5.205   0.618 -0.8391 -0.3891  0.7003
  114PVA     H419217   5.238   5.161   0.601 -1.9247 -3.1512  1.8213
  114PVA     C319218   4.991   5.302   0.457 -0.4585  0.3831 -0.4437
  114PVA     H519219   4.915   5.271   0.384  0.4137  0.8125 -1.5567
  114PVA     H619220   4.931   5.327   0.546  1.2354 -1.8155  1.4654
  114PVA     C419221   5.081   5.423   0.411  0.6913 -0.3610  0.1638
  114PVA     H719222   5.088   5.504   0.485  0.9669  2.3646 -2.6338
  114PVA     H819223   5.184   5.395   0.386  2.2505 -0.2693  5.2414
  114PVA     C519224   5.006   5.490   0.297 -0.8909 -0.3098  0.3317
  114PVA     H919225   4.967   5.406   0.239  2.1023 -0.9829 -0.8750
  114PVA     O219226   4.887   5.556   0.337 -0.2670  1.4950 -0.7248
  114PVA    H1019227   4.867   5.550   0.432  1.3918 -2.2957 -0.4114
  114PVA     C619228   5.111   5.586   0.224  0.6938  0.0118  0.8131
  114PVA    H1119229   5.142   5.674   0.282  0.1630  1.8248 -1.4942
  114PVA    H1219230   5.210   5.540   0.220  2.0100  2.4638  2.6948
  114PVA     C719231   5.071   5.632   0.080  0.0025 -0.9579  0.1555
  114PVA    H1319232   4.998   5.569   0.029  1.1471 -2.6578  0.5289
  114PVA    H1419233   5.156   5.613   0.013  0.6050  1.9440 -0.0197
  114PVA     C819234   4.995   5.771   0.085  0.5596 -1.2389 -0.5759
  114PVA    H1519235   5.074   5.831   0.132  1.3507 -0.4012 -2.8216
  114PVA     O319236   4.880   5.776   0.160 -0.5102 -0.6487  0.3275
  114PVA    H1619237   4.860   5.687   0.195  1.2290 -0.4514  1.9843
  114PVA     C919238   4.968   5.825   8.032  0.6478  0.6593  0.0393
  114PVA    H1719239   4.906   5.914   8.014 -1.5684 -0.9775 -1.0895
  114PVA    H1819240   4.918   5.739   7.983 -1.1032  0.6455  1.7122
  114PVA    C1019241   5.100   5.850   7.957 -0.4412  0.5532 -0.0856
  114PVA    H1919242   5.180   5.839   8.031  0.7981 -0.4074 -1.5021
  114PVA    H2019243   5.115   5.761   7.894  0.3532  0.6733 -0.0808
  114PVA    C1119244   5.138   5.970   7.880  0.7808  0.3669 -0.3892
  114PVA    H2119245   5.226   5.943   7.820  0.4784  1.6470 -1.4646
  114PVA     O419246   5.164   6.080   7.963  0.8320  0.2291 -0.4318
  114PVA    H2219247   5.193   6.044   8.049  1.1009 -0.7154 -0.9061
  114PVA    C1219248   5.054   6.024   7.768 -0.3332 -0.9941 -0.4215
  114PVA    H2319249   5.020   5.948   7.697  1.3574 -1.8417 -0.3695
  114PVA    H2419250   4.962   6.069   7.806  2.1243  2.7256  1.8641
  114PVA    C1319251   5.124   6.154   7.694  0.3889  0.7490  1.0638
  114PVA    H2519252   5.075   6.249   7.720  1.3649  1.4563  0.3791
  114PVA    H2619253   5.227   6.177   7.724  0.9445  1.2012 -1.0039
  114PVA    C1419254   5.112   6.110   7.540 -1.3008 -1.0033  0.0395
  114PVA    H2719255   5.181   6.025   7.532 -2.3556 -1.7482 -1.6027
  114PVA     O519256   4.984   6.101   7.498 -0.8996  0.2323  0.8259
  114PVA    H2819257   4.982   6.114   7.402  0.9561  1.3565  0.8927
  114PVA    C1519258   5.182   6.220   7.457 -0.0071  0.8213  1.0128
  114PVA    H2919259   5.288   6.228   7.481  0.6555  4.8711 -2.0893
  114PVA    H3019260   5.125   6.309   7.487 -4.2027 -1.7547  1.5450
  114PVA    C1619261   5.158   6.192   7.306 -0.2070  0.2543  0.5685
  114PVA    H3119262   5.168   6.087   7.274 -0.5291  0.6938 -1.0892
  114PVA    H3219263   5.053   6.213   7.279  0.4343  2.1069 -0.6768
  114PVA    C1719264   5.251   6.267   7.198 -0.1018 -0.1492  0.2953
  114PVA    H3319265   5.352   6.229   7.217 -0.3144  0.7063  3.7194
  114PVA     O619266   5.241   6.403   7.227  0.7183 -0.4748  0.2667
  114PVA    H3419267   5.150   6.436   7.222 -0.1701 -2.5224  1.5754
  114PVA    C1819268   5.205   6.216   7.054  0.2433  0.5239  0.0677
  114PVA    H3519269   5.210   6.107   7.043 -1.8512  0.4240 -0.2595
  114PVA    H3619270   5.099   6.244   7.057  0.4458  1.3355 -0.1690
  114PVA    C1919271   5.271   6.288   6.934  1.0848  0.2110  0.3194
  114PVA    H3719272   5.377   6.302   6.956  1.2515 -1.7371  0.9272
  114PVA    H3819273   5.242   6.393   6.930  0.8358  0.1685 -3.8888
  114PVA    C2019274   5.244   6.214   6.798 -0.1464  0.1242 -0.5137
  114PVA    H3919275   5.286   6.272   6.715  1.8832 -1.9393 -1.0675
  114PVA     O719276   5.112   6.208   6.770  0.3046 -0.7557 -0.3425
  114PVA    H4019277   5.106   6.171   6.681  2.9791 -1.8452 -0.1505
  114PVA    C2119278   5.309   6.075   6.790 -0.2844 -0.3019 -0.0916
  114PVA    H4119279   5.258   5.990   6.835  3.1574 -1.0635  2.8593
  114PVA    H4219280   5.410   6.085   6.832 -0.6220 -1.8245  1.1680
  114PVA    C2219281   5.332   6.039   6.649 -1.5558 -0.2716 -0.2051
  114PVA    H4319282   5.364   6.122   6.584  0.3952 -1.5208 -0.9440
  114PVA    H4419283   5.415   5.971   6.626 -0.7403  0.7271 -0.3101
  114PVA    C2319284   5.216   5.966   6.577  0.7273  1.3319 -0.5552
  114PVA    H4519285   5.178   5.886   6.641 -0.0676  0.5735 -1.9266
  114PVA     O819286   5.105   6.053   6.564 -0.1121 -0.7172  0.2037
  114PVA    H4619287   5.035   6.014   6.509  2.2857 -1.5677 -2.4927
  114PVA    C2419288   5.266   5.905   6.437 -0.4007 -0.3538 -0.2213
  114PVA    H4719289   5.292   5.990   6.372 -3.4484  0.5073 -0.4552
  114PVA    H4819290   5.349   5.833   6.442 -0.0496  0.1274  1.5145
  114PVA    C2519291   5.162   5.824   6.371 -0.1283 -0.0257  0.0529
  114PVA    H4919292   5.071   5.879   6.345 -1.2643 -3.4396 -4.4187
  114PVA    H5019293   5.134   5.757   6.454 -1.3047  5.5809  4.8967
  114PVA    C2619294   5.210   5.732   6.253  0.3708 -0.5411 -1.0323
  114PVA    H5119295   5.311   5.692   6.267  0.8982  1.3244  1.0252
  114PVA     O919296   5.214   5.800   6.134  0.7206  0.0277 -0.3504
  114PVA    H5219297   5.173   5.889   6.139  1.7575  1.0302 -4.8656
  114PVA    C2719298   5.110   5.607   6.243  1.3007 -0.4014 -0.2830
  114PVA    H5319299   5.099   5.573   6.346  2.8014  2.4310  0.9156
  114PVA    H5419300   5.006   5.632   6.218  2.0996  2.1049 -1.4315
  114PVA    C2819301   5.166   5.504   6.147 -0.5856  1.0219 -0.0159
  114PVA    H5519302   5.115   5.410   6.170 -0.8363  1.4609  1.2873
  114PVA    H5619303   5.269   5.489   6.181 -1.5103  0.4005  2.6907
  114PVA    C2919304   5.161   5.515   5.995  0.3812  0.4266 -0.3968
  114PVA    H5719305   5.266   5.522   5.966  0.2911  1.5846 -0.4848
  114PVA    O1019306   5.086   5.618   5.943  0.1273 -0.7979  0.4131
  114PVA    H5819307   5.124   5.696   5.986  0.7918 -0.8918  0.0163
  114PVA    C3019308   5.105   5.379   5.932 -0.1872 -0.2635  0.3347
  114PVA    H5919309   5.126   5.383   5.824 -0.3371 -2.5800  0.1590
  114PVA    H6019310   5.147   5.290   5.981 -1.2767 -2.2649 -2.1299
  114PVA    C3119311   4.950   5.391   5.930 -1.1168 -0.1936  0.0605
  114PVA    H6119312   4.924   5.469   5.858 -0.5603 -1.3365 -1.4233
  114PVA    H6219313   4.898   5.411   6.025 -3.8739  1.3769 -1.6655
  114PVA    C3219314   4.886   5.257   5.882  0.1601  1.1465 -0.6466
  114PVA    H6319315   4.941   5.196   5.809 -2.5520 -1.9231 -0.3402
  114PVA    O1119316   4.747   5.276   5.838  1.7565 -0.4630  0.1914
  114PVA    H6419317   4.759   5.262   5.743 -3.0114 -1.8729 -0.4546
  114PVA    C3319318   4.873   5.156   6.009  0.7237  0.1199  0.2635
  114PVA    H6519319   4.777   5.180   6.055  1.1169 -1.8702  2.3300
  114PVA    H6619320   4.944   5.173   6.091  0.7739  0.2390  0.1953
  114PVA    C3419321   4.863   5.002   5.963 -0.0119  0.1449 -0.4727
  114PVA    H6719322   4.955   4.993   5.904 -1.1320  4.0373 -3.1694
  114PVA    H6819323   4.768   5.000   5.909 -1.7927  0.8471  2.3938
  114PVA    C3519324   4.860   4.879   6.071 -0.3496 -0.0418  0.1826
  114PVA    H6919325   4.933   4.913   6.145  0.5460 -0.7255 -0.3601
  114PVA    O1219326   4.719   4.875   6.136 -0.0771 -0.2909 -0.1581
  114PVA    H7019327   4.696   4.792   6.182 -2.7970  0.2527 -0.3483
  114PVA    C3619328   4.891   4.731   6.034  0.5566 -0.9498 -0.4577
  114PVA    H7119329   4.999   4.722   6.056  0.9147  2.6096 -0.2723
  114PVA    H7219330   4.829   4.667   6.098 -0.8591 -3.1058 -3.7187
  114PVA    C3719331   4.865   4.707   5.885 -0.1809 -0.0499 -0.0830
  114PVA    H7319332   4.891   4.799   5.832  2.7722 -2.2086 -2.7723
  114PVA    H7419333   4.954   4.647   5.861 -0.3372  0.3318 -1.7709
  114PVA    C3819334   4.719   4.642   5.862 -0.1709  0.2124  0.0758
  114PVA    H7519335   4.670   4.718   5.924 -1.1664  1.6048 -2.2476
  114PVA    O1319336   4.683   4.667   5.731  0.6006  0.6515 -0.5095
  114PVA    H7619337   4.586   4.662   5.719  0.8201  2.3382 -5.1399
  114PVA    C3919338   4.695   4.498   5.898 -0.0147  0.0771 -0.0896
  114PVA    H7719339   4.592   4.489   5.934 -2.0510  1.6791 -4.6868
  114PVA    H7819340   4.749   4.472   5.990 -0.1315  4.9907  1.6351
  114PVA    C4019341   4.731   4.405   5.777  0.2084  0.4288 -0.3118
  114PVA    H7919342   4.667   4.425   5.689 -0.0689 -0.4108 -0.3141
  114PVA    H8019343   4.828   4.427   5.730  0.9700  2.1246  1.9113
  114PVA    C4119344   4.718   4.255   5.817  0.6752  0.1617 -0.7871
  114PVA    H8119345   4.794   4.267   5.896 -2.9150  0.0699  3.0041
  114PVA    O1419346   4.592   4.223   5.874 -0.7971 -0.0661  0.6284
  114PVA    H8219347   4.633   4.230   5.962 -2.5178  1.6901  1.3842
  114PVA    C4219348   4.751   4.147   5.710 -0.9008 -0.4814  0.8052
  114PVA    H8319349   4.782   4.060   5.769 -1.0927 -0.6364  0.6793
  114PVA    H8419350   4.659   4.115   5.660 -0.0621 -0.3872 -0.8590
  114PVA    C4319351   4.873   4.182   5.621 -0.7852  0.9792 -1.6539
  114PVA    H8519352   4.954   4.203   5.692 -3.0570 -0.1149  1.4961
  114PVA    H8619353   4.840   4.267   5.559  0.9147  2.5939 -0.4613
  114PVA    C4419354   4.924   4.069   5.538 -0.6921 -0.1672  0.2293
  114PVA    H8719355   4.839   4.011   5.500 -0.2146 -2.7836  2.8022
  114PVA    O1519356   4.987   4.117   5.423  0.0490 -0.7786  0.2644
  114PVA    H8819357   5.053   4.185   5.446  2.1488 -2.7697  0.5575
  114PVA    C4519358   5.024   3.976   5.613 -0.1624 -0.4525  0.9881
  114PVA    H8919359   5.114   4.025   5.652 -2.1487  2.8818  1.7959
  114PVA    H9019360   4.990   3.937   5.710  3.3274  0.4960  2.7731
  114PVA    C4619361   5.058   3.851   5.526 -0.2550  0.9204 -0.2461
  114PVA    H9119362   5.107   3.881   5.433  3.2018 -0.0076  1.1216
  114PVA    H9219363   4.958   3.816   5.499 -0.8895  3.9135 -2.1458
  114PVA    C4719364   5.119   3.727   5.592 -1.0632 -0.9890  0.8627
  114PVA    H9319365   5.068   3.726   5.689 -2.2080  0.8786  0.3133
  114PVA    O1619366   5.258   3.737   5.615  0.5126 -0.0007 -0.8086
  114PVA    H9419367   5.299   3.767   5.532 -0.2377  0.5883 -0.9797
  114PVA    C4819368   5.097   3.590   5.522 -0.3774 -0.7580  0.2787
  114PVA    H9519369   4.996   3.588   5.478  1.1338  2.2051 -3.9581
  114PVA    H9619370   5.153   3.599   5.429  2.6078  0.5085  2.0608
  114PVA    C4919371   5.150   3.465   5.596  0.4809 -0.1281 -1.0397
  114PVA    H9719372   5.112   3.473   5.699 -1.8127 -0.5491 -1.8059
  114PVA    H9819373   5.259   3.455   5.592  0.3121 -1.7541 -2.7741
  114PVA    C5019374   5.107   3.335   5.532 -0.7771  0.3572 -0.4888
  114PVA    H9919375   5.152   3.330   5.432 -0.1319 -0.0215 -0.1899
  114PVA    O1719376   4.969   3.343   5.515  0.6213 -0.2343  0.3278
  114PVA   H10019377   4.940   3.425   5.471 -2.2014 -1.0816  0.4263
  114PVA    C5119378   5.138   3.200   5.599  0.1710 -0.0528  0.9177
  114PVA   H10119379   5.116   3.196   5.706  1.3766 -0.1103  1.1771
  114PVA   H10219380   5.072   3.126   5.552  0.2949  1.1718 -1.3193
  115PVA     C119381   5.312   4.819   0.601  0.9809 -0.7571 -0.5998
  115PVA     H119382   5.324   4.904   0.532  1.8507 -0.7744 -0.4812
  115PVA     H219383   5.289   4.866   0.698 -3.8505  4.6141 -3.7408
  115PVA     C219384   5.458   4.763   0.606  0.1954  0.6260  0.1141
  115PVA     H319385   5.446   4.682   0.679  0.1061  0.3745 -0.1777
  115PVA     O119386   5.496   4.727   0.475 -0.8687  0.4759 -1.3493
  115PVA     H419387   5.587   4.751   0.453 -1.0968 -0.2114 -3.1581
  115PVA     C319388   5.558   4.866   0.664 -0.4549  0.2106  0.0838
  115PVA     H519389   5.494   4.919   0.736 -0.4960  0.3324 -0.0406
  115PVA     H619390   5.601   4.939   0.593 -3.9860 -0.2597 -2.7879
  115PVA     C419391   5.676   4.800   0.737 -0.9145  0.7711  0.5306
  115PVA     H719392   5.730   4.744   0.659 -2.5641 -1.3184  0.7858
  115PVA     H819393   5.634   4.727   0.806 -0.3262  0.2050  0.2987
  115PVA     C519394   5.778   4.904   0.818 -0.7519 -0.0816 -0.2814
  115PVA     H919395   5.793   4.832   0.900  1.7829 -0.5523 -1.0604
  115PVA     O219396   5.729   5.033   0.842 -0.1402  0.3262 -0.3290
  115PVA    H1019397   5.662   5.016   0.911  0.6471 -3.9995 -0.3308
  115PVA     C619398   5.925   4.909   0.769  0.0220 -1.2096  0.4038
  115PVA    H1119399   5.948   4.830   0.697 -1.9486  0.0646 -1.7459
  115PVA    H1219400   5.940   4.997   0.705  0.6448  0.5350  2.7936
  115PVA     C719401   6.024   4.931   0.893  0.6964 -1.3465  0.9365
  115PVA    H1319402   6.038   4.848   0.963  1.0158  0.2369  2.8710
  115PVA    H1419403   5.973   5.004   0.958 -4.3007  0.8735 -4.5798
  115PVA     C819404   6.166   4.995   0.875 -1.2283 -0.5092  0.1672
  115PVA    H1519405   6.158   5.072   0.798 -1.2155 -2.0289 -1.4184
  115PVA     O319406   6.243   4.897   0.828 -0.0715 -1.2807  0.5146
  115PVA    H1619407   6.332   4.926   0.857  0.1252  0.2736 -1.4380
  115PVA     C919408   6.223   5.043   1.010 -0.3792  0.4909  0.1946
  115PVA    H1719409   6.210   4.970   1.090 -3.4594  0.3703 -0.2806
  115PVA    H1819410   6.177   5.134   1.050  2.1444  1.3820  1.2460
  115PVA    C1019411   6.371   5.073   1.008 -0.1129 -0.4695  1.5726
  115PVA    H1919412   6.441   4.997   0.971 -2.6706 -2.0813 -0.3469
  115PVA    H2019413   6.398   5.141   0.926 -1.1239 -1.6698  0.1888
  115PVA    C1119414   6.421   5.138   1.143 -0.5061 -1.0715  0.3276
  115PVA    H2119415   6.365   5.113   1.233  0.3440  0.6027  1.3932
  115PVA     O419416   6.420   5.277   1.117 -0.1263 -0.1596  0.0809
  115PVA    H2219417   6.480   5.314   1.184 -2.3539  1.1423  1.4898
  115PVA    C1219418   6.573   5.111   1.169  0.1996  0.9522 -1.4320
  115PVA    H2319419   6.597   5.004   1.160 -0.2918  0.5141  1.4800
  115PVA    H2419420   6.630   5.165   1.094  2.8576 -2.2597 -1.9736
  115PVA    C1319421   6.626   5.158   1.317  0.3162 -0.4926 -0.3926
  115PVA    H2519422   6.701   5.083   1.346  0.4211 -0.2896 -0.1433
  115PVA    H2619423   6.551   5.145   1.395  0.1208 -1.5714 -0.7394
  115PVA    C1419424   6.697   5.299   1.335  0.9034 -0.1033  0.3163
  115PVA    H2719425   6.622   5.375   1.361  2.3318  1.2442  0.6988
  115PVA     O519426   6.748   5.349   1.203 -0.1253  0.2473 -0.3407
  115PVA    H2819427   6.831   5.297   1.197 -1.3677 -1.8274 -0.5205
  115PVA    C1519428   6.791   5.315   1.455  0.1879  0.5201  0.4281
  115PVA    H2919429   6.882   5.264   1.421 -0.3557  1.0877 -2.0316
  115PVA    H3019430   6.751   5.250   1.534 -1.3104 -0.6677 -1.2225
  115PVA    C1619431   6.806   5.463   1.497  0.1176 -0.7675 -0.1852
  115PVA    H3119432   6.801   5.535   1.414 -0.6744 -1.0543 -0.3924
  115PVA    H3219433   6.731   5.471   1.577  0.7595  0.2269  0.3440
  115PVA    C1719434   6.945   5.492   1.564 -0.7186 -0.3920 -0.5796
  115PVA    H3319435   6.943   5.452   1.666  2.4467  0.6368 -0.0113
  115PVA     O619436   7.036   5.420   1.489  0.7877  0.2257  0.7554
  115PVA    H3419437   6.965   5.368   1.449  1.4582 -0.9594  1.0553
  115PVA    C1819438   6.997   5.642   1.580  0.3775  0.0625 -0.1255
  115PVA    H3519439   7.000   5.703   1.489  1.0003  0.6407  0.2654
  115PVA    H3619440   6.922   5.683   1.648  1.2978 -0.6556  1.3858
  115PVA    C1919441   7.139   5.651   1.634 -1.0321  1.4701  0.5531
  115PVA    H3719442   7.193   5.575   1.577  1.1252  0.1518  4.0805
  115PVA    H3819443   7.141   5.617   1.738  0.2118 -4.3637 -1.0041
  115PVA    C2019444   7.214   5.790   1.602  0.6458  0.5061  1.2982
  115PVA    H3919445   7.225   5.783   1.493 -1.1450 -0.3782  1.1322
  115PVA     O719446   7.128   5.889   1.644 -0.1340  0.0547 -0.0304
  115PVA    H4019447   7.053   5.873   1.585 -1.0299 -0.7188  1.2778
  115PVA    C2119448   7.366   5.805   1.658  0.5824 -0.4439  0.6246
  115PVA    H4119449   7.425   5.714   1.673  5.3370  2.2609  0.4863
  115PVA    H4219450   7.376   5.856   1.754  1.4055  1.1783 -0.2767
  115PVA    C2219451   7.442   5.900   1.560 -1.8382 -0.0343  0.1330
  115PVA    H4319452   7.449   5.842   1.466 -3.2860 -2.0175  1.1643
  115PVA    H4419453   7.384   5.990   1.540 -2.7128 -0.7273 -0.5423
  115PVA    C2319454   7.586   5.932   1.613  0.2765  0.0384 -1.0671
  115PVA    H4519455   7.641   5.847   1.656 -0.3029 -0.4665 -1.3141
  115PVA     O819456   7.568   6.042   1.705  0.6903  0.7686  1.0253
  115PVA    H4619457   7.501   6.009   1.768 -2.3406  0.6751 -1.9666
  115PVA    C2419458   7.672   5.989   1.505 -0.2209 -0.4540 -0.3561
  115PVA    H4719459   7.678   5.928   1.414  0.3178  1.4368 -1.6345
  115PVA    H4819460   7.634   6.086   1.472 -1.7554 -0.6727  0.6782
  115PVA    C2519461   0.060   5.977   1.544 -0.0239  0.8504 -0.1369
  115PVA    H4919462   0.077   6.023   1.642 -0.9747 -1.6453  1.2757
  115PVA    H5019463   0.078   5.873   1.573 -1.0837  0.5227 -0.6184
  115PVA    C2619464   0.163   6.003   1.435  0.3156 -0.8270  0.5156
  115PVA    H5119465   0.124   6.094   1.386  1.8100 -1.9417 -3.0509
  115PVA     O919466   0.162   5.902   1.333 -0.3459 -0.5858 -0.7923
  115PVA    H5219467   0.256   5.918   1.311 -0.5255  1.6313 -0.1385
  115PVA    C2719468   0.312   6.029   1.459  0.6449  0.0584  0.2445
  115PVA    H5319469   0.362   5.949   1.515  1.8609 -0.0358 -0.9028
  115PVA    H5419470   0.312   6.110   1.533  1.6620 -4.0671  5.3279
  115PVA    C2819471   0.382   6.070   1.331 -0.4984  0.5314  0.3307
  115PVA    H5519472   0.324   6.155   1.293 -0.5943  1.6763  2.8491
  115PVA    H5619473   0.378   5.991   1.255 -1.0548  2.0690 -1.3409
  115PVA    C2919474   0.537   6.120   1.344 -0.1003  0.9589  0.4433
  115PVA    H5719475   0.528   6.229   1.349  1.8154  1.2222 -0.7264
  115PVA    O1019476   0.589   6.064   1.456  0.0754 -0.0272 -0.7619
  115PVA    H5819477   0.647   6.135   1.488 -1.2940  0.7873  0.0463
  115PVA    C3019478   0.632   6.098   1.218 -0.5579  1.3156  0.7175
  115PVA    H5919479   0.653   5.991   1.216  0.7028  1.5522  0.8394
  115PVA    H6019480   0.572   6.120   1.128 -0.1923  0.6023  0.2964
  115PVA    C3119481   0.772   6.165   1.215  0.9435  0.4246  0.2056
  115PVA    H6119482   0.847   6.109   1.273  1.3788 -0.2724 -0.9822
  115PVA    H6219483   0.752   6.266   1.251 -1.8424 -0.6803  2.1487
  115PVA    C3219484   0.803   6.182   1.064  0.8803 -0.0899 -0.0306
  115PVA    H6319485   0.743   6.268   1.034  2.0070  0.3382 -1.1940
  115PVA    O1119486   0.784   6.071   0.985  0.4076 -0.4721 -0.1419
  115PVA    H6419487   0.837   6.005   1.033  0.5409  1.2061  2.1887
  115PVA    C3319488   0.955   6.227   1.033 -0.8491 -0.4207 -0.5462
  115PVA    H6519489   1.019   6.141   1.057 -2.5342 -1.7829 -0.7271
  115PVA    H6619490   0.983   6.303   1.106 -1.0189  1.0135 -1.9114
  115PVA    C3419491   0.970   6.264   0.880 -1.4623 -0.1675 -0.0192
  115PVA    H6719492   0.965   6.171   0.822  2.5512 -0.0258 -0.8771
  115PVA    H6819493   0.890   6.330   0.843 -1.9901 -1.9509 -2.3226
  115PVA    C3519494   1.106   6.334   0.841  1.1786 -1.3861  0.1381
  115PVA    H6919495   1.196   6.277   0.866  0.9573 -0.8967  2.2834
  115PVA    O1219496   1.122   6.450   0.924  0.3801 -0.5338 -0.1295
  115PVA    H7019497   1.119   6.413   1.014 -0.9745  1.3428  0.6712
  115PVA    C3619498   1.113   6.352   0.689 -0.5450 -0.0560 -0.6737
  115PVA    H7119499   1.017   6.345   0.637 -1.2733  0.8195  0.5032
  115PVA    H7219500   1.169   6.270   0.642 -0.7956  1.3540 -3.6774
  115PVA    C3719501   1.217   6.455   0.652  0.4585  0.7142 -0.1827
  115PVA    H7319502   1.296   6.447   0.728  1.4163 -2.3457 -1.3349
  115PVA    H7419503   1.168   6.548   0.683 -1.0521 -0.2624  0.4715
  115PVA    C3819504   1.256   6.452   0.506  0.3517  0.7699  0.2915
  115PVA    H7519505   1.169   6.415   0.450 -0.3613  1.5559  0.8610
  115PVA    O1319506   1.353   6.358   0.486  0.6747 -0.7002 -0.0702
  115PVA    H7619507   1.297   6.282   0.509 -3.5558  1.0471 -3.2299
  115PVA    C3919508   1.296   6.578   0.437  0.8227  1.0319 -0.2113
  115PVA    H7719509   1.398   6.614   0.455 -0.2821  4.5676 -0.1767
  115PVA    H7819510   1.239   6.664   0.474  1.0740  0.6029  1.2279
  115PVA    C4019511   1.283   6.586   0.280 -0.3040  0.2796 -0.2819
  115PVA    H7919512   1.354   6.505   0.258 -2.4686 -1.9660  0.5532
  115PVA    H8019513   1.193   6.542   0.234  1.8190 -1.9344 -2.6564
  115PVA    C4119514   1.326   6.724   0.225 -0.7819  1.3042  0.9311
  115PVA    H8119515   1.413   6.734   0.290  0.4338  0.0499 -0.4369
  115PVA    O1419516   1.236   6.827   0.238  0.1888  0.7137 -0.2403
  115PVA    H8219517   1.297   6.903   0.251  0.9910 -0.0923  0.8932
  115PVA    C4219518   1.373   6.712   0.069 -1.1839 -0.0985  0.7090
  115PVA    H8319519   1.296   6.757   0.004 -1.9912  0.9335  2.3065
  115PVA    H8419520   1.387   6.613   0.026  3.0549  1.0527 -1.0662
  115PVA    C4319521   1.490   6.789   0.041 -0.3846  0.9393  1.1390
  115PVA    H8519522   1.570   6.743   0.101  0.5651  2.5718  1.1895
  115PVA    H8619523   1.473   6.893   0.073  0.6962  1.9721 -1.3391
  115PVA    C4419524   1.547   6.788   7.986 -0.8814 -0.1805  1.3369
  115PVA    H8719525   1.505   6.875   7.934  0.6218  2.0914  3.7228
  115PVA    O1519526   1.505   6.660   7.919 -0.2174  0.7941 -0.2515
  115PVA    H8819527   1.418   6.664   7.877 -0.9342  2.0471  1.2585
  115PVA    C4519528   1.706   6.813   7.976 -0.5536  0.5739  0.1212
  115PVA    H8919529   1.757   6.720   8.002 -0.6405  0.8779  1.4577
  115PVA    H9019530   1.738   6.871   8.063  0.5753  1.6913 -0.9786
  115PVA    C4619531   1.785   6.890   7.860  0.6526  0.6854  0.9127
  115PVA    H9119532   1.730   6.960   7.795  0.5525  0.2152  0.4827
  115PVA    H9219533   1.868   6.947   7.903  2.4929  2.4330 -4.2094
  115PVA    C4719534   1.860   6.782   7.768 -0.8396  0.7999  0.4395
  115PVA    H9319535   1.790   6.707   7.727  0.7239  0.7203 -2.3322
  115PVA    O1619536   1.946   6.709   7.852  0.3646  0.0023 -0.2339
  115PVA    H9419537   2.026   6.761   7.871 -0.6698  0.5340  3.2313
  115PVA    C4819538   1.935   6.825   7.636  0.3455 -0.0842  0.2134
  115PVA    H9519539   1.888   6.906   7.578 -2.1618  0.8635  3.2317
  115PVA    H9619540   2.032   6.859   7.673 -0.7324  1.0841  2.2011
  115PVA    C4919541   1.978   6.718   7.534 -0.3892  0.9846  0.2743
  115PVA    H9719542   2.036   6.765   7.454 -0.1844 -1.1114 -0.8754
  115PVA    H9819543   2.043   6.657   7.599 -2.6306  0.5174  2.2316
  115PVA    C5019544   1.865   6.629   7.471  0.3379 -0.3134  0.7289
  115PVA    H9919545   1.810   6.584   7.554  1.5834 -4.8126 -0.6012
  115PVA    O1719546   1.785   6.711   7.380  0.0407  0.6352 -0.5355
  115PVA   H10019547   1.726   6.645   7.339 -0.1251  0.7099 -0.4154
  115PVA    C5119548   1.922   6.504   7.406  0.6954  0.0418 -0.0566
  115PVA   H10119549   2.028   6.506   7.435 -0.2756 -0.2135  4.1725
  115PVA   H10219550   1.912   6.517   7.298 -0.6163 -1.6529 -0.1840
  116PVA     C119551   5.570   3.732   4.999  0.0098  0.0924  0.1257
  116PVA     H119552   5.624   3.640   4.976  0.4103 -0.3083  2.4038
  116PVA     H219553   5.538   3.788   4.910 -3.3551 -5.5471 -2.7397
  116PVA     C219554   5.653   3.830   5.091 -0.2332 -0.6311  0.6359
  116PVA     H319555   5.640   3.788   5.191 -2.6663 -0.5096  0.4352
  116PVA     O119556   5.602   3.960   5.093 -1.0753 -0.2255 -0.1561
  116PVA     H419557   5.547   3.968   5.173 -1.1048  2.0369 -0.3401
  116PVA     C319558   5.805   3.850   5.055 -0.1516 -0.8581 -0.1401
  116PVA     H519559   5.824   3.914   4.968  0.6539  1.2174  1.4781
  116PVA     H619560   5.844   3.750   5.033  1.9522 -0.0204 -0.4649
  116PVA     C419561   5.908   3.911   5.158 -0.3043  0.0122 -0.3923
  116PVA     H719562   5.919   3.839   5.240  0.2541  1.3705  0.7641
  116PVA     H819563   5.859   3.988   5.218  0.5287 -1.6206  2.5934
  116PVA     C519564   6.053   3.950   5.105  0.3866 -0.6323  0.2492
  116PVA     H919565   6.104   3.863   5.061 -0.0702 -2.2117  2.6387
  116PVA     O219566   6.038   4.057   5.001 -0.1550  0.2194  0.4719
  116PVA    H1019567   6.009   3.999   4.928  0.4351 -3.4913  2.9225
  116PVA     C619568   6.146   4.003   5.212 -0.5817  0.5159  0.2925
  116PVA    H1119569   6.220   4.068   5.162 -1.6789 -1.0074 -3.6929
  116PVA    H1219570   6.078   4.056   5.279  0.0169  0.6726  0.7794
  116PVA     C719571   6.203   3.881   5.293  0.8858 -0.4448  0.4948
  116PVA    H1319572   6.265   3.819   5.228 -0.3696 -2.2801  0.9836
  116PVA    H1419573   6.121   3.811   5.314  0.3243  0.5857  1.8812
  116PVA     C819574   6.281   3.918   5.428  0.3426  0.5204  0.3053
  116PVA    H1519575   6.218   3.966   5.504 -0.4266 -2.2989  1.5961
  116PVA     O319576   6.375   4.017   5.397 -0.4598  0.3706 -0.3452
  116PVA    H1619577   6.362   4.061   5.483 -1.5761 -1.4037  0.4545
  116PVA     C919578   6.351   3.793   5.481 -0.2593  0.5069 -0.8982
  116PVA    H1719579   6.413   3.742   5.406 -0.1757 -1.6732  0.5428
  116PVA    H1819580   6.273   3.723   5.517  0.5568  1.1385  2.4395
  116PVA    C1019581   6.428   3.832   5.614  0.7336  0.6818  0.8872
  116PVA    H1919582   6.501   3.913   5.599 -0.6643  3.2734  5.9385
  116PVA    H2019583   6.359   3.852   5.697 -0.4433 -1.6275  0.5344
  116PVA    C1119584   6.536   3.734   5.653  0.8044  0.0851 -0.5686
  116PVA    H2119585   6.606   3.710   5.572  1.0967 -0.6403 -0.1090
  116PVA     O419586   6.445   3.623   5.700 -0.6096  0.2343 -0.8682
  116PVA    H2219587   6.375   3.627   5.632 -0.1956  1.7762 -1.2494
  116PVA    C1219588   6.630   3.791   5.764  0.7610 -0.0603  0.2103
  116PVA    H2319589   6.707   3.838   5.702  2.2770 -2.7224 -0.0695
  116PVA    H2419590   6.585   3.871   5.824 -0.2056  1.2206 -2.1224
  116PVA    C1319591   6.714   3.684   5.851 -0.4354  0.9392 -0.2607
  116PVA    H2519592   6.762   3.625   5.771 -3.6132  0.7377 -2.1758
  116PVA    H2619593   6.651   3.630   5.922  0.1832 -0.3775 -0.6683
  116PVA    C1419594   6.820   3.750   5.936 -1.3283 -0.5263 -0.5827
  116PVA    H2719595   6.890   3.815   5.882 -0.4541 -1.2558 -0.3543
  116PVA     O519596   6.775   3.833   6.037  0.7583 -1.1291  0.1382
  116PVA    H2819597   6.719   3.900   5.994  2.6958 -0.3381 -1.3180
  116PVA    C1519598   6.917   3.640   6.002  0.0497 -0.4830  0.0766
  116PVA    H2919599   6.929   3.551   5.939  4.0893  1.6589 -2.5970
  116PVA    H3019600   6.854   3.615   6.089  1.2652 -1.2745  0.7551
  116PVA    C1619601   7.055   3.691   6.056  0.4487 -1.1193  0.5210
  116PVA    H3119602   7.122   3.683   5.970  0.7269  3.0269  0.1618
  116PVA    H3219603   7.033   3.796   6.077 -0.2565 -0.9465 -0.9796
  116PVA    C1719604   7.100   3.608   6.164  0.6900 -1.1196  0.4886
  116PVA    H3319605   7.051   3.622   6.261 -1.7016 -1.7700 -0.5511
  116PVA     O619606   7.086   3.475   6.123  0.4394  0.2024 -0.1064
  116PVA    H3419607   7.003   3.441   6.160  0.8687  0.7836  1.4306
  116PVA    C1819608   7.242   3.639   6.194  0.3201 -0.4835  0.3122
  116PVA    H3519609   7.300   3.635   6.101 -0.1106 -0.9344  0.0558
  116PVA    H3619610   7.247   3.747   6.213  1.4932 -1.3540  7.4052
  116PVA    C1919611   7.322   3.550   6.292  0.3071  1.3698 -0.8413
  116PVA    H3719612   7.428   3.577   6.297  0.8966 -1.0158  1.4497
  116PVA    H3819613   7.311   3.449   6.252 -1.5372  1.8675 -1.7309
  116PVA    C2019614   7.271   3.553   6.451 -0.0892  0.4380  0.7224
  116PVA    H3919615   7.169   3.516   6.435  0.1792 -0.6684  1.3790
  116PVA     O719616   7.334   3.451   6.532 -0.5770  0.6655 -0.3902
  116PVA    H4019617   7.393   3.402   6.473  1.0185 -0.4175  1.9385
  116PVA    C2119618   7.290   3.685   6.531  0.7886 -0.6883 -0.2889
  116PVA    H4119619   7.394   3.684   6.567  1.5615  0.7799 -2.3064
  116PVA    H4219620   7.296   3.776   6.470  1.1590 -1.3237 -1.2225
  116PVA    C2219621   7.207   3.703   6.670 -0.6732  0.1545  0.7300
  116PVA    H4319622   7.216   3.605   6.718  0.9233 -0.0334  0.1040
  116PVA    H4419623   7.099   3.702   6.647 -0.9142  0.0986  1.8252
  116PVA    C2319624   7.236   3.824   6.754 -0.3217  0.0398 -0.3393
  116PVA    H4519625   7.279   3.896   6.683  0.1697 -1.8218 -1.9967
  116PVA     O819626   7.339   3.771   6.847  0.2796 -0.5049  0.8527
  116PVA    H4619627   7.368   3.690   6.801  2.6982 -0.8921  2.8397
  116PVA    C2419628   7.109   3.887   6.829  1.1926 -0.3619 -0.0094
  116PVA    H4719629   7.018   3.898   6.769  2.3091  0.0093 -1.7021
  116PVA    H4819630   7.073   3.816   6.905 -3.3699  0.2609 -1.2627
  116PVA    C2519631   7.158   4.030   6.904  0.0858  0.2605 -0.6330
  116PVA    H4919632   7.261   4.027   6.941 -0.1450 -0.8542 -0.0082
  116PVA    H5019633   7.100   4.034   6.997 -0.9777  1.3265 -1.3063
  116PVA    C2619634   7.121   4.154   6.822  0.0042  0.7776  0.1858
  116PVA    H5119635   7.179   4.134   6.731 -1.1066  0.1807 -0.4071
  116PVA     O919636   6.992   4.154   6.772  0.1166 -1.0923 -0.2997
  116PVA    H5219637   6.949   4.084   6.824 -0.6700 -0.3927  0.0138
  116PVA    C2719638   7.163   4.278   6.900 -0.5323 -0.9683  0.8919
  116PVA    H5319639   7.263   4.255   6.939  1.0436 -2.1289 -3.2087
  116PVA    H5419640   7.106   4.307   6.989  0.0114 -0.6812  1.1510
  116PVA    C2819641   7.193   4.405   6.806  0.0297 -0.3851 -0.2401
  116PVA    H5519642   7.248   4.360   6.722 -1.0995  0.3439 -1.3888
  116PVA    H5619643   7.103   4.437   6.753 -1.1773  0.8243  2.3425
  116PVA    C2919644   7.273   4.525   6.876 -0.4939 -0.4628 -0.1012
  116PVA    H5719645   7.322   4.461   6.950  0.7796  0.9188  0.3159
  116PVA    O1019646   7.178   4.605   6.945  0.8356  0.8253  0.3343
  116PVA    H5819647   7.122   4.645   6.876 -1.6154 -1.9029  0.5538
  116PVA    C3019648   7.374   4.589   6.767 -0.3259 -0.1467  0.0844
  116PVA    H5919649   7.321   4.591   6.671  0.3641 -1.4052 -0.3394
  116PVA    H6019650   7.458   4.519   6.777  0.2068  0.5645  0.6388
  116PVA    C3119651   7.415   4.734   6.789 -0.1678 -0.0698 -1.1503
  116PVA    H6119652   7.420   4.766   6.893 -4.7837  1.1491 -1.0895
  116PVA    H6219653   7.321   4.786   6.765  0.3295 -0.1567 -3.6578
  116PVA    C3219654   7.533   4.777   6.693  0.0152 -0.2376  1.0039
  116PVA    H6319655   7.614   4.704   6.706  0.8733  0.3019 -0.9300
  116PVA    O1119656   7.500   4.775   6.551 -0.0591  0.3655 -0.2798
  116PVA    H6419657   7.540   4.694   6.515  1.6269  0.5288  1.0716
  116PVA    C3319658   7.594   4.910   6.729 -0.1062  0.5107 -0.2931
  116PVA    H6519659   7.614   4.901   6.836  0.3149 -0.0329 -0.4078
  116PVA    H6619660   7.528   4.997   6.719  1.2788  1.4246 -2.2300
  116PVA    C3419661   7.725   4.957   6.659 -0.4092  0.0511  0.3014
  116PVA    H6719662   7.711   4.951   6.550  0.1864  1.9068  0.0925
  116PVA    H6819663   0.044   4.889   6.678 -1.5595 -1.1674  1.2442
  116PVA    C3519664   0.008   5.103   6.684  0.3165 -1.1995 -0.3521
  116PVA    H6919665   7.710   5.167   6.747  1.4547  1.5483 -1.8662
  116PVA    O1219666   0.026   5.169   6.563  1.7614  0.1221  0.0074
  116PVA    H7019667   0.114   5.145   6.530  0.7849  0.6130 -3.2359
  116PVA    C3619668   0.140   5.112   6.746  0.5951  0.3463  0.5466
  116PVA    H7119669   0.141   5.063   6.844  1.5616  0.8546  0.8103
  116PVA    H7219670   0.230   5.065   6.704  1.8479  0.3498  3.0630
  116PVA    C3719671   0.189   5.253   6.785 -0.6989 -1.0837  0.5327
  116PVA    H7319672   0.107   5.322   6.806 -0.3978 -0.0577 -1.5130
  116PVA    H7419673   0.246   5.299   6.704  1.8892 -1.9533  1.7226
  116PVA    C3819674   0.287   5.267   6.907 -0.7600 -1.2564  0.7522
  116PVA    H7519675   0.375   5.206   6.885 -1.4300 -2.2181  0.6811
  116PVA    O1319676   0.247   5.231   7.038 -1.2059 -0.4985 -0.1553
  116PVA    H7619677   0.203   5.303   7.087  0.0287 -0.0923  0.4096
  116PVA    C3919678   0.350   5.409   6.909 -0.3319  0.8709 -0.6985
  116PVA    H7719679   0.263   5.475   6.915 -1.9556 -1.3314  2.3591
  116PVA    H7819680   0.391   5.426   6.808 -1.2557  1.2380 -1.0161
  116PVA    C4019681   0.474   5.436   6.989 -0.1267  0.0476  0.5553
  116PVA    H7919682   0.454   5.403   7.092  1.1505 -1.9336  0.2281
  116PVA    H8019683   0.553   5.371   6.949 -0.2377  0.3986 -0.2546
  116PVA    C4119684   0.529   5.581   6.986 -0.0236 -0.3236 -0.3009
  116PVA    H8119685   0.582   5.603   6.893  2.6220  1.5156  1.5023
  116PVA    O1419686   0.414   5.663   6.974  0.2305 -0.6858  0.5798
  116PVA    H8219687   0.383   5.685   7.064  0.0631 -2.5375  1.0317
  116PVA    C4219688   0.610   5.624   7.111 -0.0231  0.0608 -0.6753
  116PVA    H8319689   0.674   5.537   7.130 -0.7348 -0.1637  0.7569
  116PVA    H8419690   0.541   5.616   7.195 -0.6119  0.9282 -1.0547
  116PVA    C4319691   0.698   5.761   7.103  1.2729  0.1624  0.1075
  116PVA    H8519692   0.642   5.852   7.080  1.0625 -0.1391 -0.5877
  116PVA    H8619693   0.754   5.759   7.008 -0.4581  0.3945 -0.9581
  116PVA    C4419694   0.776   5.782   7.235 -0.3666 -0.6489  0.1335
  116PVA    H8719695   0.826   5.685   7.250 -2.7064 -2.7368 -3.7715
  116PVA    O1519696   0.684   5.804   7.342 -0.0176  1.1381 -0.5816
  116PVA    H8819697   0.720   5.830   7.428 -0.1918 -0.5081  0.0112
  116PVA    C4519698   0.864   5.916   7.236 -0.0177  0.3970  0.3672
  116PVA    H8919699   0.788   5.995   7.232 -1.7725 -1.2583 -0.3515
  116PVA    H9019700   0.910   5.921   7.137 -4.2439  0.0348 -1.8192
  116PVA    C4619701   0.969   5.927   7.360  1.0336 -0.1262 -0.0349
  116PVA    H9119702   0.935   5.904   7.461 -2.5010 -1.8279 -1.4500
  116PVA    H9219703   1.037   5.842   7.348  0.7626 -0.0675 -2.7434
  116PVA    C4719704   1.063   6.048   7.345  0.1477 -0.5629 -0.2585
  116PVA    H9319705   1.006   6.126   7.398 -2.5478 -0.7662 -2.5664
  116PVA    O1619706   1.078   6.084   7.211 -0.1618 -0.5153 -0.2687
  116PVA    H9419707   1.143   6.018   7.184  0.1203 -1.6799  2.8815
  116PVA    C4819708   1.193   6.036   7.429  0.4968  1.1377 -0.3304
  116PVA    H9519709   1.188   6.103   7.516 -0.2816  2.1344 -1.1099
  116PVA    H9619710   1.200   5.934   7.467 -1.0034  0.4403 -1.7789
  116PVA    C4919711   1.332   6.089   7.361  0.0705  0.9390  0.5588
  116PVA    H9719712   1.322   6.182   7.304 -0.4426  0.4367 -0.1901
  116PVA    H9819713   1.348   6.036   7.266  1.1004  3.4567 -0.7700
  116PVA    C5019714   1.469   6.062   7.431  1.2599 -0.3376  0.8709
  116PVA    H9919715   1.463   6.129   7.518 -0.5481  0.3412  0.2651
  116PVA    O1719716   1.491   5.931   7.484  0.3118 -0.3193 -0.4839
  116PVA   H10019717   1.584   5.902   7.479  0.5900  0.2807  0.7911
  116PVA    C5119718   1.593   6.095   7.341  0.6683 -0.3048  0.5505
  116PVA   H10119719   1.562   6.185   7.286  0.9256 -0.8543 -0.5374
  116PVA   H10219720   1.623   6.007   7.282 -1.6362 -0.3638 -0.6226
  117PVA     C119721   5.131   3.483   5.003  0.3600  0.1749 -0.7426
  117PVA     H119722   5.146   3.375   5.008 -1.0550 -0.1695 -2.7049
  117PVA     H219723   5.147   3.501   4.896  2.3845  3.0686 -0.0956
  117PVA     C219724   4.975   3.496   5.024 -0.3914  1.0869 -0.4942
  117PVA     H319725   4.949   3.588   4.971  1.5618  1.0730 -1.5785
  117PVA     O119726   4.939   3.522   5.160 -0.4636  0.0226 -0.0705
  117PVA     H419727   4.854   3.476   5.171 -0.1323 -0.2345  1.7313
  117PVA     C319728   4.899   3.362   4.990  0.4699  0.0039 -0.1972
  117PVA     H519729   4.903   3.275   5.056 -1.6323 -1.5628 -2.0022
  117PVA     H619730   4.935   3.314   4.898 -1.5119  1.6162 -1.9169
  117PVA     C419731   4.743   3.398   4.977 -0.3001 -0.4037 -0.5115
  117PVA     H719732   4.722   3.486   5.039 -4.7820  1.1358 -3.6851
  117PVA     H819733   4.725   3.435   4.875  2.6505  1.4795 -0.4855
  117PVA     C519734   4.643   3.288   5.007 -0.7561  0.2591  0.4214
  117PVA     H919735   4.671   3.251   5.106  2.0033  0.6707 -0.1336
  117PVA     O219736   4.520   3.334   5.009 -0.1500  0.4189  0.1263
  117PVA    H1019737   4.511   3.377   5.096  0.0474  3.0840 -1.0843
  117PVA     C619738   4.676   3.167   4.916  1.0193 -0.0830 -0.8832
  117PVA    H1119739   4.773   3.131   4.952 -1.1778 -4.2765  1.7392
  117PVA    H1219740   4.701   3.211   4.819  2.3413  3.9713  1.0622
  117PVA     C719741   4.567   3.059   4.907 -0.4903 -0.6213  0.1930
  117PVA    H1319742   4.538   3.021   5.006  1.2753 -0.0541  0.9797
  117PVA    H1419743   4.483   3.122   4.874  1.3257  2.9994  1.9437
  117PVA     C819744   4.596   2.942   4.820  1.0466 -0.2236 -0.3839
  117PVA    H1519745   4.666   2.875   4.872 -1.7643 -1.6704  1.8801
  117PVA     O319746   4.643   2.994   4.698  0.0656 -0.0391  0.2109
  117PVA    H1619747   4.601   3.079   4.675  0.7087  0.0806 -0.5959
  117PVA     C919748   4.469   2.867   4.783  0.1457 -0.8881  0.1841
  117PVA    H1719749   4.396   2.937   4.741  0.9325  1.1525  2.0689
  117PVA    H1819750   4.411   2.836   4.871  0.0624  0.5090  0.6397
  117PVA    C1019751   4.502   2.747   4.716  1.0618  1.0410  0.4474
  117PVA    H1919752   4.526   2.776   4.613 -3.0851 -4.5914 -2.6791
  117PVA    H2019753   4.573   2.680   4.766 -2.3013 -2.5444  0.8396
  117PVA    C1119754   4.378   2.654   4.715  0.3797  0.4618  0.5810
  117PVA    H2119755   4.319   2.658   4.808  1.5894 -0.2508  1.4057
  117PVA     O419756   4.299   2.681   4.602 -1.0713  0.0591 -0.7817
  117PVA    H2219757   4.365   2.655   4.535  0.5237 -0.0898  0.7916
  117PVA    C1219758   4.432   2.503   4.723 -0.1967  0.6973  0.8426
  117PVA    H2319759   4.483   2.476   4.816  4.9134 -2.3350 -2.3322
  117PVA    H2419760   4.512   2.497   4.647  0.9684  3.7332  1.6532
  117PVA    C1319761   4.309   2.406   4.693 -0.3522 -0.8138  0.3626
  117PVA    H2519762   4.245   2.423   4.605 -0.1913 -1.6605  0.0703
  117PVA    H2619763   4.244   2.422   4.780  2.5819  0.0658  2.5405
  117PVA    C1419764   4.350   2.261   4.688  1.2038  0.1062 -0.4164
  117PVA    H2719765   4.416   2.242   4.773  0.4210 -2.1558 -0.2228
  117PVA     O519766   4.424   2.233   4.567  0.2253  0.3157 -0.7313
  117PVA    H2819767   4.496   2.298   4.567  1.6897 -1.1982  0.7257
  117PVA    C1519768   4.230   2.170   4.723  0.6788  1.0200  0.1077
  117PVA    H2919769   4.234   2.156   4.832  1.2210 -1.1122 -0.1304
  117PVA    H3019770   4.145   2.234   4.696 -2.0580 -1.6928  1.6399
  117PVA    C1619771   4.221   2.046   4.627  0.1394  0.2240  0.2381
  117PVA    H3119772   4.314   1.988   4.624 -1.6337 -3.2430  3.5000
  117PVA    H3219773   4.210   2.077   4.523  0.3352 -2.6456 -0.7089
  117PVA    C1719774   4.096   1.944   4.657 -0.7948 -0.9571 -0.1200
  117PVA    H3319775   3.996   1.986   4.675  0.4236  2.7149 -0.9381
  117PVA     O619776   4.135   1.893   4.787  0.4242  0.4201  0.6497
  117PVA    H3419777   4.150   1.797   4.776 -0.2875  0.2065  1.4200
  117PVA    C1819778   4.083   1.830   4.552  0.3881 -0.2168 -0.8040
  117PVA    H3519779   3.978   1.803   4.566 -1.2402  5.0344 -0.8971
  117PVA    H3619780   4.088   1.867   4.449  6.0981 -2.9074 -1.8697
  117PVA    C1919781   4.179   1.712   4.571  0.1021 -0.0044 -0.4323
  117PVA    H3719782   4.133   1.666   4.659  0.5179 -0.1267 -0.2766
  117PVA    H3819783   4.272   1.762   4.599 -1.6619  2.0484  2.2702
  117PVA    C2019784   4.185   1.616   4.451  0.4515 -0.4056  0.1443
  117PVA    H3919785   4.280   1.649   4.407  1.4605 -0.4363  2.1956
  117PVA     O719786   4.084   1.649   4.362  0.3802 -0.4452  0.0437
  117PVA    H4019787   4.128   1.688   4.285  2.3628 -2.9880 -0.2648
  117PVA    C2119788   4.195   1.464   4.491 -0.4838 -0.4235 -1.0692
  117PVA    H4119789   4.143   1.455   4.587 -2.8836  2.9908 -1.8540
  117PVA    H4219790   4.291   1.430   4.532 -1.8971 -1.7143  1.3666
  117PVA    C2219791   4.146   1.370   4.381  1.5235 -0.2968 -0.4798
  117PVA    H4319792   4.056   1.411   4.332  1.8222  1.8475  0.6589
  117PVA    H4419793   4.221   1.377   4.301  0.6979  1.2954 -1.1707
  117PVA    C2319794   4.125   1.219   4.432  0.0801 -0.1677 -0.3819
  117PVA    H4519795   4.045   1.228   4.506  0.7690 -0.0875  0.3717
  117PVA     O819796   4.233   1.173   4.504 -0.6443 -0.2948  0.9023
  117PVA    H4619797   4.263   1.093   4.459 -4.0756 -1.0553 -0.3083
  117PVA    C2419798   4.082   1.123   4.325  0.2700  0.8579  0.2381
  117PVA    H4719799   4.151   1.111   4.240 -0.1026  1.0089 -0.0914
  117PVA    H4819800   3.991   1.168   4.284  1.4337  3.9094  0.7088
  117PVA    C2519801   4.050   0.984   4.381 -0.9273  0.2859  0.0095
  117PVA    H4919802   4.141   0.946   4.429 -0.2523  1.1693 -0.5238
  117PVA    H5019803   4.044   0.914   4.297  0.0272 -0.9701  0.9534
  117PVA    C2619804   3.931   0.974   4.469 -0.7664 -0.0074  0.6741
  117PVA    H5119805   3.953   1.028   4.562 -1.6432  1.0956  0.2618
  117PVA     O919806   3.834   1.040   4.399  1.0173 -0.0549  1.0690
  117PVA    H5219807   3.745   1.014   4.430  0.5500  1.0817  0.7169
  117PVA    C2719808   3.907   0.820   4.502 -0.2090 -0.9778  0.3563
  117PVA    H5319809   3.984   0.789   4.574 -1.6561 -1.5275  1.7186
  117PVA    H5419810   3.926   0.762   4.411  1.3161 -1.9955  1.2744
  117PVA    C2819811   3.765   0.786   4.562 -0.9409 -0.8569 -1.2989
  117PVA    H5519812   3.767   0.853   4.649  4.3255 -1.8467 -0.3646
  117PVA    H5619813   3.682   0.794   4.490 -0.6539  1.3849 -1.4534
  117PVA    C2919814   3.751   0.643   4.626 -0.7603  0.1118 -0.1328
  117PVA    H5719815   3.839   0.631   4.690  1.7111  3.0025 -2.6594
  117PVA    O1019816   3.748   0.545   4.522  0.7746  0.1892 -0.4139
  117PVA    H5819817   3.822   0.486   4.545 -0.7238 -1.1324  1.2882
  117PVA    C3019818   3.632   0.640   4.729 -0.0542 -0.4742 -0.8330
  117PVA    H5919819   3.631   0.549   4.790 -4.1345  0.7119  1.1828
  117PVA    H6019820   3.640   0.711   4.812  1.5346 -1.2323 -0.3010
  117PVA    C3119821   3.488   0.629   4.667 -0.8782 -0.2093 -0.6951
  117PVA    H6119822   3.480   0.554   4.588 -2.3546 -1.0634  0.2382
  117PVA    H6219823   3.456   0.721   4.616 -0.1432  0.0702 -0.6757
  117PVA    C3219824   3.372   0.598   4.778  0.5817 -1.1941 -0.0275
  117PVA    H6319825   3.424   0.522   4.839  3.6990  0.2866 -0.6453
  117PVA    O1119826   3.342   0.720   4.847 -1.0607  0.8078  0.2660
  117PVA    H6419827   3.289   0.704   4.927 -2.7853  2.4804 -0.4727
  117PVA    C3319828   3.249   0.513   4.725  0.7121 -1.2913 -0.7139
  117PVA    H6519829   3.172   0.520   4.803  1.3163 -0.6739 -0.1621
  117PVA    H6619830   3.209   0.564   4.637 -1.9329 -0.8273  0.6446
  117PVA    C3419831   3.278   0.373   4.675 -0.7947  0.4511  0.3570
  117PVA    H6719832   3.315   0.371   4.572  0.8314 -3.4817  0.8454
  117PVA    H6819833   3.347   0.329   4.747 -2.1937 -4.8009 -1.0845
  117PVA    C3519834   3.149   0.283   4.675 -0.8954  0.3552  0.7870
  117PVA    H6919835   3.070   0.330   4.616  1.6394  1.4725 -1.9508
  117PVA    O1219836   3.117   0.253   4.806 -0.4656 -0.2853  1.1337
  117PVA    H7019837   3.176   0.184   4.840  2.5809  1.9833  0.8519
  117PVA    C3619838   3.166   0.152   4.598  0.2299 -0.4951 -0.4297
  117PVA    H7119839   3.267   0.115   4.621 -0.9336 -3.4499  0.4216
  117PVA    H7219840   3.090   0.085   4.639  3.0513 -5.0262 -1.8806
  117PVA    C3719841   3.134   0.158   4.448  1.3138  0.3212 -0.2205
  117PVA    H7319842   3.191   0.240   4.403  2.5172  0.0748  0.8151
  117PVA    H7419843   3.025   0.168   4.443  1.3855  1.1517 -0.2095
  117PVA    C3819844   3.172   0.025   4.366  0.4582 -0.7696 -0.6510
  117PVA    H7519845   3.208   7.635   4.438  0.9704  1.1719  1.1943
  117PVA    O1319846   3.063   7.666   4.291  0.9547  0.0924  0.3624
  117PVA    H7619847   2.989   0.017   4.344  0.0353 -1.1481 -0.0267
  117PVA    C3919848   3.299   0.026   4.275  0.2190 -0.4130  0.0178
  117PVA    H7719849   3.392   0.056   4.326  0.1398  2.8244 -1.5237
  117PVA    H7819850   3.283   0.112   4.209  1.3584 -0.4901 -0.3875
  117PVA    C4019851   3.327   7.592   4.183 -1.7252  1.0494 -0.1626
  117PVA    H7919852   3.347   7.500   4.239  0.4386  1.6301  0.0974
  117PVA    H8019853   3.229   7.559   4.145 -1.2450  1.0249 -1.4107
  117PVA    C4119854   3.435   7.597   4.078 -0.0637  0.4712  0.1655
  117PVA    H8119855   3.379   7.649   3.999 -3.1510 -3.5596 -0.6442
  117PVA    O1419856   3.458   7.473   4.016 -0.1240  0.0452 -0.6241
  117PVA    H8219857   3.385   7.460   3.953  0.9568  2.4665 -2.5847
  117PVA    C4219858   3.576   7.664   4.124 -0.1384  0.3989  0.0417
  117PVA    H8319859   3.546   0.071   4.176 -0.9955  1.0824 -1.5775
  117PVA    H8419860   3.615   7.593   4.198  0.7633 -2.7798 -3.1566
  117PVA    C4319861   3.668   7.683   3.996 -0.2386  0.3711  0.0475
  117PVA    H8519862   3.616   0.068   3.929  0.4499  0.8905  0.0427
  117PVA    H8619863   3.682   7.594   3.933 -0.7790  0.0944  0.3109
  117PVA    C4419864   3.800   0.083   4.027 -0.2114 -0.9733  1.8231
  117PVA    H8719865   3.876   0.034   4.089  0.1157 -1.0621  1.3569
  117PVA    O1519866   3.860   0.099   3.902  0.1919 -0.4178 -0.2864
  117PVA    H8819867   3.836   0.188   3.871 -1.8571 -0.7860  0.0737
  117PVA    C4519868   3.761   0.218   4.099 -1.3064  0.3691  0.9196
  117PVA    H8919869   3.713   0.280   4.022  2.1294  2.3833  0.1896
  117PVA    H9019870   3.695   0.197   4.185 -0.6506 -1.2850  1.0519
  117PVA    C4619871   3.888   0.287   4.153  1.2250  0.2269 -0.0901
  117PVA    H9119872   3.952   0.205   4.186  0.8410 -0.0808 -0.1041
  117PVA    H9219873   3.931   0.324   4.059 -1.3942  2.1693 -0.6429
  117PVA    C4719874   3.867   0.407   4.251 -0.7119 -0.5525 -1.2074
  117PVA    H9319875   3.808   0.385   4.341 -2.8506  2.0930 -1.8154
  117PVA    O1619876   4.008   0.431   4.282 -0.2224 -0.7976  0.2638
  117PVA    H9419877   4.054   0.489   4.219  0.5795 -0.4762  1.1101
  117PVA    C4819878   3.820   0.543   4.179  0.4635  0.4257 -0.4753
  117PVA    H9519879   3.759   0.517   4.092  0.4288  1.9850 -0.9548
  117PVA    H9619880   3.746   0.581   4.251  0.0098  0.1089 -0.7699
  117PVA    C4919881   3.902   0.661   4.127 -1.1174 -1.0122  0.7620
  117PVA    H9719882   3.982   0.626   4.060  0.8523  0.6680  2.1074
  117PVA    H9819883   3.959   0.698   4.213 -0.5651  1.8793 -0.6932
  117PVA    C5019884   3.820   0.785   4.074  0.3595  0.5073 -0.1788
  117PVA    H9919885   3.736   0.732   4.027  2.1646 -0.5681 -2.3573
  117PVA    O1719886   3.760   0.847   4.182  0.8558 -0.1806 -0.2026
  117PVA   H10019887   3.828   0.890   4.236  1.7236 -1.0625 -0.5635
  117PVA    C5119888   3.882   0.898   3.975 -0.6231  0.8855  0.0556
  117PVA   H10119889   3.967   0.947   4.024  0.0241 -0.9846  0.8781
  117PVA   H10219890   3.956   0.849   3.910  1.7631  2.3954  1.4711
  118PVA     C119891   2.585   6.216   7.092  0.1675  1.1855 -0.3631
  118PVA     H119892   2.534   6.310   7.116  1.9952  1.9349  0.7709
  118PVA     H219893   2.521   6.150   7.032  0.2164  1.2667 -0.5032
  118PVA     C219894   2.703   6.265   6.995  0.2587 -0.0475  0.5301
  118PVA     H319895   2.743   6.175   6.946 -2.1123 -1.9344  1.8135
  118PVA     O119896   2.805   6.329   7.072  0.1437 -0.0624 -0.1271
  118PVA     H419897   2.779   6.420   7.094 -5.2695 -0.9306 -1.4663
  118PVA     C319898   2.642   6.382   6.900 -0.7554  0.4328  0.3231
  118PVA     H519899   2.589   6.448   6.969  0.8541 -1.3369  3.4440
  118PVA     H619900   2.570   6.337   6.830 -1.4593 -0.1868  1.4354
  118PVA     C419901   2.734   6.465   6.810 -1.5872 -0.3684 -1.3882
  118PVA     H719902   2.824   6.481   6.871 -1.5729  1.4552 -1.8203
  118PVA     H819903   2.770   6.412   6.721 -1.7472 -0.9510 -1.1076
  118PVA     C519904   2.663   6.600   6.754 -0.1122  1.3164 -1.3996
  118PVA     H919905   2.577   6.620   6.819  0.2836  4.3969 -1.7080
  118PVA     O219906   2.611   6.556   6.638  0.4022 -0.3939  0.9948
  118PVA    H1019907   2.615   6.459   6.650 -1.2152 -0.7391 -0.6189
  118PVA     C619908   2.741   6.737   6.757 -0.1790 -0.4294  0.2796
  118PVA    H1119909   2.787   6.739   6.856  2.9903 -0.1724 -1.0797
  118PVA    H1219910   2.825   6.742   6.687  1.5935 -3.5680  2.0143
  118PVA     C719911   2.660   6.862   6.737  0.3601 -0.5463 -0.7950
  118PVA    H1319912   2.560   6.821   6.754  0.6440  0.3107  5.2241
  118PVA    H1419913   2.663   6.924   6.647  0.2698  0.3809 -0.1684
  118PVA     C819914   2.686   6.974   6.830 -0.9509 -1.2134 -0.3095
  118PVA    H1519915   2.607   7.049   6.839  1.7476  1.9714 -0.7541
  118PVA     O319916   2.702   6.942   6.963  0.8485 -0.5459  0.1603
  118PVA    H1619917   2.793   6.926   6.995  2.0420  4.0031 -0.2866
  118PVA     C919918   2.814   7.048   6.791 -0.5447  0.2671 -0.9727
  118PVA    H1719919   2.803   7.110   6.701  4.9002  0.9161 -1.5530
  118PVA    H1819920   2.888   6.979   6.750 -2.9300 -2.0638 -1.5896
  118PVA    C1019921   2.894   7.126   6.899  0.7525  0.2904  0.0086
  118PVA    H1919922   2.818   7.152   6.973  0.9107  0.5266  0.0874
  118PVA    H2019923   2.947   7.049   6.956 -1.6983 -1.9695 -0.5587
  118PVA    C1119924   2.985   7.238   6.847  0.1471 -0.3825 -0.8177
  118PVA    H2119925   3.041   7.196   6.762 -1.5254 -0.5355 -1.9109
  118PVA     O419926   2.885   7.331   6.806  0.8846  1.0866  0.2836
  118PVA    H2219927   2.903   7.424   6.827  1.4075  0.7611  1.3470
  118PVA    C1219928   3.060   7.313   6.963 -0.2814 -0.2556  0.0592
  118PVA    H2319929   2.997   7.387   7.015  0.8971 -1.8031  4.0998
  118PVA    H2419930   3.090   7.245   7.044  2.0810 -1.6508 -1.8609
  118PVA    C1319931   3.177   7.382   6.890  1.1294  0.1302  0.6619
  118PVA    H2519932   3.151   7.418   6.789 -1.4801 -0.7626  0.9400
  118PVA    H2619933   3.250   7.302   6.869 -1.1371 -1.7790 -0.4592
  118PVA    C1419934   3.236   7.499   6.976 -0.0759  0.1433 -0.6739
  118PVA    H2719935   3.248   7.465   7.080  1.9383  0.7252 -0.6759
  118PVA     O519936   3.150   7.613   6.977 -0.2240  0.0868  0.5741
  118PVA    H2819937   3.156   7.643   6.885 -3.0356  0.3737  0.3767
  118PVA    C1519938   3.373   7.536   6.909 -0.0956  0.3945  0.0175
  118PVA    H2919939   3.356   7.510   6.804 -1.5520  0.0113  0.3274
  118PVA    H3019940   3.446   7.457   6.929 -0.0449  0.3461 -0.3476
  118PVA    C1619941   3.437   7.681   6.937 -0.4896  0.7542  0.5646
  118PVA    H3119942   3.477   0.021   6.837 -2.2480  0.0257 -0.3657
  118PVA    H3219943   3.360   0.072   6.959 -0.7714  0.1537  1.6655
  118PVA    C1719944   3.546   0.007   7.041 -0.6975  0.1027 -0.8796
  118PVA    H3319945   3.483   0.021   7.130  0.8437  1.2597  0.0767
  118PVA     O619946   3.622   7.562   7.051 -0.0912  1.0140  0.1885
  118PVA    H3419947   3.706   7.605   7.076  0.4631  0.1556 -0.1716
  118PVA    C1819948   3.642   0.139   7.037 -0.3246  1.0487  0.7519
  118PVA    H3519949   3.614   0.191   6.945  0.1998 -1.8464 -1.1716
  118PVA    H3619950   3.614   0.203   7.122  0.8764  1.0703  1.1637
  118PVA    C1919951   3.799   0.102   7.062 -0.1952 -1.2078 -0.6102
  118PVA    H3719952   3.817   0.005   7.013  4.1965  1.0616 -4.1969
  118PVA    H3819953   3.818   0.078   7.167 -3.1089  1.9599  0.8263
  118PVA    C2019954   3.895   0.208   7.017 -0.2043 -0.6918  0.3332
  118PVA    H3919955   3.862   0.241   6.918  0.6313  2.7620  1.0937
  118PVA     O719956   4.026   0.160   7.010  0.0330 -0.8687  0.3428
  118PVA    H4019957   4.089   0.234   7.003  3.9174 -3.9494 -2.9921
  118PVA    C2119958   3.905   0.338   7.117 -0.1225 -0.1223 -0.4302
  118PVA    H4119959   3.975   0.291   7.187  1.0182  0.4696 -1.1332
  118PVA    H4219960   3.815   0.358   7.176  1.6589  1.3239  2.0021
  118PVA    C2219961   3.979   0.474   7.063  0.2943  0.0530 -0.5013
  118PVA    H4319962   4.058   0.494   7.136  0.6170 -3.7107  0.4002
  118PVA    H4419963   4.038   0.455   6.973  2.5738 -3.8378  1.5154
  118PVA    C2319964   3.890   0.597   7.038 -0.8544  0.7795  0.2642
  118PVA    H4519965   3.793   0.551   7.014  0.8619 -2.7007 -0.7023
  118PVA     O819966   3.879   0.661   7.159 -0.0238 -0.2734 -0.6825
  118PVA    H4619967   3.955   0.641   7.216 -1.0449 -1.8968  0.1893
  118PVA    C2419968   3.940   0.702   6.937 -0.2928 -0.0811 -1.2377
  118PVA    H4719969   4.038   0.743   6.965 -1.0900  2.2066 -1.5738
  118PVA    H4819970   3.958   0.655   6.839 -0.3331 -3.0084  0.0693
  118PVA    C2519971   3.855   0.828   6.923  0.6473 -0.1608  0.9786
  118PVA    H4919972   3.849   0.885   7.017 -0.8332  3.5081 -1.1130
  118PVA    H5019973   3.764   0.779   6.886  1.7297 -0.9162 -0.8074
  118PVA    C2619974   3.893   0.923   6.801  1.1794 -0.7123  0.2093
  118PVA    H5119975   3.824   0.887   6.724  1.2845 -1.8684  0.6268
  118PVA     O919976   4.037   0.921   6.772  0.4223 -0.3474  0.3475
  118PVA    H5219977   4.043   0.980   6.694 -1.4958 -2.5385 -1.6257
  118PVA    C2719978   3.839   1.069   6.817 -0.2977  0.1205  0.5215
  118PVA    H5319979   3.885   1.116   6.904  1.5317 -1.0678  0.2723
  118PVA    H5419980   3.735   1.052   6.846 -0.3166  0.1766  0.4852
  118PVA    C2819981   3.847   1.164   6.691 -0.3562 -0.3098 -1.0943
  118PVA    H5519982   3.829   1.104   6.600 -0.2862 -0.8766 -0.7412
  118PVA    H5619983   3.782   1.249   6.715  2.1140  1.0966  1.0200
  118PVA    C2919984   3.990   1.247   6.664  2.2976  0.7042 -0.1412
  118PVA    H5719985   3.994   1.312   6.753 -2.6633  0.0466  0.8796
  118PVA    O1019986   4.098   1.158   6.637  0.2509  0.0447 -0.2649
  118PVA    H5819987   4.171   1.190   6.580  0.0410 -0.5668 -0.8939
  118PVA    C3019988   3.977   1.358   6.547 -0.0725  0.4679  0.4078
  118PVA    H5919989   3.916   1.309   6.470  1.1537 -0.4711 -0.0092
  118PVA    H6019990   3.910   1.440   6.575 -1.6123 -1.8005  4.0339
  118PVA    C3119991   4.102   1.413   6.471  0.4918 -0.6320  0.2003
  118PVA    H6119992   4.170   1.334   6.436 -0.6931 -1.4072 -0.3955
  118PVA    H6219993   4.152   1.477   6.545  1.7849 -1.7021  0.3023
  118PVA    C3219994   4.077   1.486   6.334  1.3025  0.0212  0.2168
  118PVA    H6319995   3.986   1.547   6.340  0.3154 -1.1942 -1.5034
  118PVA    O1119996   4.181   1.591   6.313 -0.5943  0.6044 -0.3326
  118PVA    H6419997   4.183   1.646   6.393 -1.1549 -1.9876  1.5486
  118PVA    C3319998   4.079   1.385   6.210  1.1983 -0.5887  0.1025
  118PVA    H6519999   4.007   1.302   6.213 -1.5646  1.6217 -0.9792
  118PVA    H6620000   4.177   1.335   6.196  0.1830 -2.1971 -1.8955
  118PVA    C3420001   4.045   1.463   6.080  0.5198 -0.0033  1.3200
  118PVA    H6720002   3.960   1.530   6.096  1.3410  2.0852 -2.0206
  118PVA    H6820003   4.119   1.538   6.050 -2.5266  3.8757  2.6561
  118PVA    C3520004   4.027   1.367   5.961  0.4669  0.3371  0.5001
  118PVA    H6920005   3.921   1.337   5.958  0.9258 -1.3062 -0.4662
  118PVA    O1220006   4.103   1.255   5.964  0.9959  0.7329 -1.0264
  118PVA    H7020007   4.169   1.257   6.036 -0.1410 -0.8233  0.1499
  118PVA    C3620008   4.031   1.435   5.824 -0.3436  0.4369 -0.6341
  118PVA    H7120009   3.981   1.530   5.845 -0.3044  0.1497  0.8560
  118PVA    H7220010   4.135   1.467   5.837 -0.8896  1.1690  2.9167
  118PVA    C3720011   3.974   1.372   5.700  0.4832  1.2008  0.0687
  118PVA    H7320012   3.870   1.340   5.711  0.5373  0.8354 -0.4282
  118PVA    H7420013   4.008   1.268   5.693  1.5612  1.2325  3.2491
  118PVA    C3820014   4.006   1.442   5.571  0.7447  1.0764 -1.1996
  118PVA    H7520015   3.947   1.534   5.572 -1.5745 -0.3133 -1.3686
  118PVA    O1320016   4.146   1.445   5.549  0.3326  0.4440 -0.7216
  118PVA    H7620017   4.185   1.534   5.552  4.9141 -1.3397  0.8590
  118PVA    C3920018   3.934   1.361   5.453 -0.7564 -0.3421 -0.3329
  118PVA    H7720019   3.827   1.386   5.452 -0.5252  0.7280 -1.2588
  118PVA    H7820020   3.935   1.253   5.473 -1.0841  0.0315  1.9047
  118PVA    C4020021   3.974   1.396   5.311 -1.0211  0.3357  0.7277
  118PVA    H7920022   4.081   1.397   5.287 -0.9276 -3.8539  0.0920
  118PVA    H8020023   3.930   1.324   5.240 -1.9247  2.1341 -0.5951
  118PVA    C4120024   3.921   1.530   5.258 -0.9791  0.9514 -0.1436
  118PVA    H8120025   3.958   1.611   5.323 -0.9280 -1.0022  2.4246
  118PVA    O1420026   3.782   1.537   5.248  0.5009  0.8813 -1.0525
  118PVA    H8220027   3.757   1.493   5.331  1.7457  1.1575 -0.5092
  118PVA    C4220028   3.950   1.558   5.106  0.0511 -0.0718 -0.4991
  118PVA    H8320029   4.059   1.553   5.096 -0.2423 -2.2130 -4.4076
  118PVA    H8420030   3.919   1.660   5.077  1.7079  1.3949  2.4487
  118PVA    C4320031   3.895   1.465   4.991 -0.3273 -0.8078 -0.6589
  118PVA    H8520032   3.940   1.371   5.027 -0.8977  0.7876  5.1859
  118PVA    H8620033   3.787   1.457   5.011  0.2311 -1.8819  2.5009
  118PVA    C4420034   3.931   1.513   4.849  0.5578  0.0722  0.0003
  118PVA    H8720035   4.041   1.511   4.852  0.7783  4.0414  2.7086
  118PVA    O1520036   3.890   1.653   4.831  0.9523  0.2666 -0.4209
  118PVA    H8820037   3.799   1.662   4.865  1.7948 -4.9163  4.9042
  118PVA    C4520038   3.872   1.430   4.727  1.2715 -0.0104 -1.1750
  118PVA    H8920039   3.786   1.374   4.767  3.2212 -2.3444 -0.0116
  118PVA    H9020040   3.931   1.339   4.709  3.6875  1.2102  0.2426
  118PVA    C4620041   3.850   1.497   4.581  0.5119  0.1700  0.7124
  118PVA    H9120042   3.796   1.593   4.588 -2.1634 -1.0852 -0.9562
  118PVA    H9220043   3.945   1.521   4.533 -1.6552  0.2183 -4.1683
  118PVA    C4720044   3.798   1.409   4.458  1.0268  0.3785 -1.4131
  118PVA    H9320045   3.878   1.337   4.438 -0.9460 -1.9312 -1.4681
  118PVA    O1620046   3.686   1.341   4.501 -0.1853  0.1119 -0.3291
  118PVA    H9420047   3.607   1.395   4.483 -0.3746 -0.6433 -1.9179
  118PVA    C4820048   3.769   1.487   4.322  0.3143  0.2172 -0.1681
  118PVA    H9520049   3.857   1.553   4.313 -0.1647  0.8702 -0.1155
  118PVA    H9620050   3.682   1.554   4.322  0.0027 -0.1130  1.9369
  118PVA    C4920051   3.761   1.392   4.205  0.2023  0.0769  0.7661
  118PVA    H9720052   3.852   1.330   4.204 -0.6359 -1.2086  0.6045
  118PVA    H9820053   3.674   1.328   4.225  0.9546 -1.2506 -0.0123
  118PVA    C5020054   3.742   1.462   4.074  0.4725 -0.7943  0.2399
  118PVA    H9920055   3.830   1.527   4.061 -0.6112  0.8419  0.7815
  118PVA    O1720056   3.646   1.564   4.075  0.1995 -0.0128 -0.4087
  118PVA   H10020057   3.650   1.624   3.999 -2.0376 -1.6247 -1.9354
  118PVA    C5120058   3.738   1.373   3.945  0.0293 -0.3586 -0.0972
  118PVA   H10120059   3.679   1.422   3.867 -0.0616 -1.9519 -1.0698
  118PVA   H10220060   3.840   1.351   3.913  0.1197 -0.7490  0.4445
  119PVA     C120061   2.568   5.785   7.098 -1.2997  0.1646 -1.3805
  119PVA     H120062   2.673   5.752   7.097 -1.4941 -0.4842 -0.9476
  119PVA     H220063   2.515   5.690   7.113  0.8270 -0.6431  2.1804
  119PVA     C220064   2.534   5.834   6.962 -0.6260 -0.4767  0.7356
  119PVA     H320065   2.527   5.944   6.967 -2.3876 -0.0944 -4.3565
  119PVA     O120066   2.640   5.814   6.873 -0.7676 -0.0819  1.1679
  119PVA     H420067   2.697   5.893   6.863  1.0446 -1.4922 -0.6435
  119PVA     C320068   2.399   5.791   6.922 -0.1876 -0.5872  0.1216
  119PVA     H520069   2.393   5.697   6.866 -1.1071 -1.9647  2.3602
  119PVA     H620070   2.340   5.745   7.002 -0.5115  1.5050  1.1500
  119PVA     C420071   2.327   5.909   6.834  0.1283 -0.3046  0.4436
  119PVA     H720072   2.327   5.995   6.902 -2.6286 -0.3390  0.6133
  119PVA     H820073   2.382   5.918   6.740  4.3152 -1.5358  2.5489
  119PVA     C520074   2.180   5.862   6.803 -0.1944  0.2558 -0.1865
  119PVA     H920075   2.174   5.754   6.789  1.0408 -0.9561  5.8334
  119PVA     O220076   2.134   5.949   6.695  0.8831  0.4824 -0.7907
  119PVA    H1020077   2.097   5.897   6.623  0.0687 -1.4326  0.9139
  119PVA     C620078   2.084   5.886   6.926 -0.5653  0.2640  0.1571
  119PVA    H1120079   2.140   5.846   7.012  2.0331  0.9914 -1.0932
  119PVA    H1220080   2.090   5.994   6.945 -1.3894  0.5453 -1.1001
  119PVA     C720081   1.947   5.826   6.923  0.1128  0.9825  0.3664
  119PVA    H1320082   1.881   5.871   6.848 -0.5954 -0.0361  0.3645
  119PVA    H1420083   1.897   5.833   7.021  2.1739 -1.5580  1.7290
  119PVA     C820084   1.952   5.671   6.877 -0.1905  0.4162  0.7626
  119PVA    H1520085   2.044   5.623   6.912 -1.6939 -2.2847  1.2413
  119PVA     O320086   1.928   5.663   6.741  0.2319  0.2096  0.6509
  119PVA    H1620087   1.850   5.718   6.720 -0.9997 -2.1375 -1.4704
  119PVA     C920088   1.839   5.590   6.934 -0.1777 -0.7925 -0.8339
  119PVA    H1720089   1.751   5.615   6.873  1.9928 -0.5810 -4.1190
  119PVA    H1820090   1.836   5.630   7.036 -2.4551 -0.8206 -0.8491
  119PVA    C1020091   1.842   5.434   6.948 -0.9798 -2.4293  0.2733
  119PVA    H1920092   1.814   5.400   6.848  1.0119  3.9234 -3.0215
  119PVA    H2020093   1.948   5.410   6.964  0.1107  2.5470  2.6871
  119PVA    C1120094   1.753   5.402   7.068  0.4707  1.1398 -0.1066
  119PVA    H2120095   1.789   5.465   7.150  0.2039  2.3674 -0.9086
  119PVA     O420096   1.622   5.443   7.057 -0.4052  0.8600  1.3533
  119PVA    H2220097   1.643   5.537   7.047  1.5490  0.2582 -2.1833
  119PVA    C1220098   1.763   5.255   7.102 -1.0036  1.4215 -0.5149
  119PVA    H2320099   1.691   5.206   7.035 -0.8651  1.9361 -1.0445
  119PVA    H2420100   1.867   5.223   7.088 -0.4019  3.0940 -0.0927
  119PVA    C1320101   1.731   5.208   7.253 -0.3789 -0.0389  0.0844
  119PVA    H2520102   1.660   5.270   7.309  0.4832 -0.3402  1.5616
  119PVA    H2620103   1.809   5.252   7.316  1.5010  2.4526 -3.6755
  119PVA    C1420104   1.709   5.063   7.290 -0.3530  1.4604 -0.3374
  119PVA    H2720105   1.814   5.029   7.287 -1.6518 -4.4104  3.4009
  119PVA     O520106   1.636   4.983   7.194  0.5209 -0.6995  0.8364
  119PVA    H2820107   1.694   4.958   7.120 -0.0173  1.1552 -0.2754
  119PVA    C1520108   1.659   5.045   7.437 -0.4779 -0.5142  0.2249
  119PVA    H2920109   1.553   5.019   7.440 -0.6300 -0.0545 -0.7742
  119PVA    H3020110   1.679   5.126   7.508  1.5709 -1.0334  0.3107
  119PVA    C1620111   1.729   4.922   7.501 -0.4137 -0.8595  0.7750
  119PVA    H3120112   1.711   4.837   7.433 -2.2386  0.8524 -1.0359
  119PVA    H3220113   1.838   4.934   7.496 -0.6319  1.8063  1.0766
  119PVA    C1720114   1.687   4.886   7.647  0.0953  0.1830  0.7434
  119PVA    H3320115   1.756   4.934   7.717  2.4679  0.2070 -1.4699
  119PVA     O620116   1.724   4.753   7.653  0.4194 -0.9208 -0.1568
  119PVA    H3420117   1.650   4.701   7.617  0.3105 -0.9086  0.0488
  119PVA    C1820118   1.535   4.891   7.681 -0.1323  0.3137  0.4139
  119PVA    H3520119   1.489   4.979   7.633 -0.0412 -0.3660 -0.9594
  119PVA    H3620120   1.483   4.816   7.619 -1.8797  0.1020  2.0412
  119PVA    C1920121   1.520   4.870   7.836  0.2214 -0.4414  0.6950
  119PVA    H3720122   1.578   4.782   7.868  0.2446  0.0400  2.0400
  119PVA    H3820123   1.559   4.941   7.910  2.6368  0.7645 -1.5788
  119PVA    C2020124   1.373   4.835   7.874  0.2382 -0.9040  0.5807
  119PVA    H3920125   1.350   4.729   7.857  0.5539 -0.8625 -0.1166
  119PVA     O720126   1.291   4.919   7.787 -0.4049 -0.2497  0.3540
  119PVA    H4020127   1.318   5.011   7.801  0.0537 -0.0454 -1.5828
  119PVA    C2120128   1.338   4.833   8.028 -1.1296  0.1223 -0.8854
  119PVA    H4120129   1.299   4.933   8.051  1.0660  0.7653  0.2768
  119PVA    H4220130   1.420   4.798   8.091 -1.8061 -1.4983 -0.8528
  119PVA    C2220131   1.221   4.739   8.061 -1.0159 -0.9039  0.0798
  119PVA    H4320132   1.159   4.726   7.971  2.1918  2.4595 -2.9083
  119PVA    H4420133   1.252   4.635   8.078 -1.9200 -0.9490  1.7151
  119PVA    C2320134   1.157   4.799   0.091 -0.7166  0.0745 -0.6276
  119PVA    H4520135   1.140   4.906   0.076  0.6724  0.3314 -0.5031
  119PVA     O820136   1.250   4.795   0.204 -0.0771 -0.3177 -0.4215
  119PVA    H4620137   1.195   4.799   0.284  1.4447  1.5875  0.6220
  119PVA    C2420138   1.040   4.710   0.130  0.9344  0.6347  0.3959
  119PVA    H4720139   1.086   4.628   0.187  0.5711 -0.0202 -0.2280
  119PVA    H4820140   0.994   4.653   0.048  3.1056 -1.4071  0.4760
  119PVA    C2520141   0.936   4.770   0.224  0.9151  0.2635 -0.3421
  119PVA    H4920142   0.914   4.699   0.305 -0.1323  0.3246 -0.5677
  119PVA    H5020143   0.985   4.849   0.283  2.5508 -3.6513  4.2120
  119PVA    C2620144   0.801   4.814   0.165 -0.3690  0.6313  1.4096
  119PVA    H5120145   0.826   4.841   0.062 -0.4906 -2.3663  0.5056
  119PVA     O920146   0.757   4.925   0.223 -0.6403 -0.9584 -0.1842
  119PVA    H5220147   0.812   4.937   0.303 -0.7640  4.2105 -0.5567
  119PVA    C2720148   0.699   4.709   0.178  0.6506  0.5461  0.0619
  119PVA    H5320149   0.668   4.715   0.284  2.1962  3.8060  0.4777
  119PVA    H5420150   0.735   4.611   0.144 -1.0252  0.0756 -0.4026
  119PVA    C2820151   0.566   4.732   0.092  1.0298  0.8101  0.7350
  119PVA    H5520152   0.558   4.841   0.088  1.7441  0.9706  2.7425
  119PVA    H5620153   0.567   4.693   8.087 -1.4356 -0.0476  0.9879
  119PVA    C2920154   0.431   4.698   0.156 -0.7906 -0.1220  0.5280
  119PVA    H5720155   0.430   4.747   0.254  1.7907  4.8908 -1.5778
  119PVA    O1020156   0.332   4.763   0.082 -1.2596  0.0186  1.0014
  119PVA    H5820157   0.381   4.833   0.036  3.1088 -2.0021  2.0634
  119PVA    C3020158   0.400   4.538   0.163  0.4605  1.2352  0.6204
  119PVA    H5920159   0.312   4.508   0.220 -0.8617  2.1997 -0.8410
  119PVA    H6020160   0.488   4.483   0.200  2.4018  1.2609 -3.3964
  119PVA    C3120161   0.364   4.466   0.023 -0.3471  0.6689  0.0471
  119PVA    H6120162   0.321   4.535   8.047 -1.6549  1.9003  1.9139
  119PVA    H6220163   0.458   4.442   8.068 -1.7947 -1.4365 -1.7825
  119PVA    C3220164   0.268   4.342   0.032 -0.0531  0.1717 -0.1821
  119PVA    H6320165   0.169   4.378   0.060 -0.4334 -3.9271  5.6248
  119PVA    O1120166   0.299   4.240   0.124  0.4274 -0.6252 -0.2571
  119PVA    H6420167   0.228   4.173   0.127  2.2026 -2.7661 -2.1134
  119PVA    C3320168   0.246   4.281   7.986 -0.7810 -0.2250 -0.2933
  119PVA    H6520169   0.345   4.272   7.940 -1.4135  0.8091 -1.9367
  119PVA    H6620170   0.217   4.377   7.941 -2.7008  0.3712  1.9608
  119PVA    C3420171   0.145   4.172   7.967 -1.0479 -1.2844  0.8084
  119PVA    H6720172   0.176   4.082   7.913 -0.5471 -1.5682  1.5649
  119PVA    H6820173   0.125   4.116   8.059 -2.8122 -2.9227 -0.4710
  119PVA    C3520174   0.008   4.212   7.909  0.6851 -0.6086 -0.2543
  119PVA    H6920175   0.020   4.227   7.801 -5.1658  0.9855 -1.0267
  119PVA    O1220176   7.725   4.331   7.967  0.3654  0.7810 -0.6346
  119PVA    H7020177   7.693   4.297   8.052 -0.9349  0.0308 -1.3877
  119PVA    C3620178   7.669   4.096   7.915 -0.2253  0.4698  1.0083
  119PVA    H7120179   7.715   4.010   7.864 -2.6032 -0.0089 -0.4879
  119PVA    H7220180   7.649   4.065   8.019  0.2466  0.5049  1.1116
  119PVA    C3720181   7.535   4.126   7.839  0.0664 -0.6529 -1.1199
  119PVA    H7320182   7.562   4.188   7.753  2.6916  2.0469  1.3939
  119PVA    H7420183   7.483   4.195   7.907 -4.2241 -3.4940 -1.1232
  119PVA    C3820184   7.440   4.004   7.810  0.5347  0.1734 -0.6610
  119PVA    H7520185   7.354   4.051   7.761  2.8283  2.2989 -2.9846
  119PVA    O1320186   7.495   3.899   7.732 -0.3564 -0.3826 -0.3532
  119PVA    H7620187   7.453   3.817   7.762  0.8552 -1.3293 -1.1142
  119PVA    C3920188   7.399   3.936   7.951  0.2632 -0.3523  0.3423
  119PVA    H7720189   7.332   4.013   7.991 -4.0987 -2.0947 -2.8896
  119PVA    H7820190   7.488   3.917   8.013 -1.8219 -3.9070  2.6057
  119PVA    C4020191   7.310   3.817   7.939 -1.1801 -0.1788  0.2157
  119PVA    H7920192   7.263   3.830   7.841  6.0461 -2.2867 -4.3336
  119PVA    H8020193   7.361   3.723   7.919  1.2349 -0.5971  6.2700
  119PVA    C4120194   7.209   3.794   8.061  0.1036  1.0653  0.0628
  119PVA    H8120195   7.180   3.889   0.010 -1.0325  0.6172  0.2910
  119PVA    O1420196   7.273   3.707   0.063  0.9209 -0.5013 -0.5590
  119PVA    H8220197   7.311   3.645   8.096  1.7272 -1.6136  0.9323
  119PVA    C4220198   7.084   3.729   8.028  1.2293 -0.5367 -0.2114
  119PVA    H8320199   7.044   3.784   7.942 -0.2771  1.3883  1.6155
  119PVA    H8420200   7.094   3.621   8.012 -0.2114 -0.7645  0.3288
  119PVA    C4320201   6.974   3.751   0.045 -0.9110  1.2696  1.2757
  119PVA    H8520202   6.947   3.854   0.070 -2.7353  1.2287 -0.3408
  119PVA    H8620203   7.013   3.705   0.137 -1.7063 -3.8688 -0.5814
  119PVA    C4420204   6.840   3.668   0.021 -0.9884 -0.1796  0.2624
  119PVA    H8720205   6.872   3.564   0.033 -0.0629 -0.7935 -5.1178
  119PVA    O1520206   6.745   3.718   0.108 -0.9515  0.5418  0.9641
  119PVA    H8820207   6.714   3.653   0.172  3.2932  3.0283  6.3555
  119PVA    C4520208   6.791   3.648   7.979 -0.3865 -0.1175 -0.3972
  119PVA    H8920209   6.778   3.743   7.927 -2.0155  1.5589  2.7383
  119PVA    H9020210   6.857   3.579   7.926 -1.7067 -4.1956  2.7439
  119PVA    C4620211   6.647   3.580   7.975  0.1614 -1.1325 -0.7381
  119PVA    H9120212   6.645   3.521   8.067  2.9022  2.8239  2.1610
  119PVA    H9220213   6.567   3.655   7.974  1.8806  0.7880 -0.3478
  119PVA    C4720214   6.616   3.504   7.847 -0.6505 -0.1461 -0.1400
  119PVA    H9320215   6.622   3.561   7.754  0.0388 -1.1841 -0.7508
  119PVA    O1620216   6.492   3.459   7.856  0.8702  0.3163 -0.0588
  119PVA    H9420217   6.497   3.370   7.816 -0.5001  0.7095 -1.1885
  119PVA    C4820218   6.710   3.386   7.812 -0.0878  0.3570 -0.1921
  119PVA    H9520219   6.661   3.337   7.727 -1.4721 -1.6778  1.6825
  119PVA    H9620220   6.813   3.417   7.788  0.6822 -3.3440 -2.5458
  119PVA    C4920221   6.722   3.293   7.938  1.3965 -0.4348  0.5240
  119PVA    H9720222   6.764   3.350   8.021 -1.5200  0.3397  1.6154
  119PVA    H9820223   6.802   3.223   7.914  0.1910 -2.3268  1.7178
  119PVA    C5020224   6.607   3.214   7.975  1.1059  0.0390 -0.5726
  119PVA    H9920225   6.535   3.279   8.026  2.6646 -0.5346  2.6153
  119PVA    O1720226   6.548   3.158   7.857  0.5895 -0.1194  0.5849
  119PVA   H10020227   6.625   3.118   7.812  0.2994  0.2943 -0.3068
  119PVA    C5120228   6.648   3.102   8.080  0.3400  0.7057 -0.9044
  119PVA   H10120229   6.749   3.064   8.061  0.2519  0.7379 -1.4637
  119PVA   H10220230   6.585   3.016   8.055  2.4952 -1.0559 -0.6269
  120PVA     C120231   3.507   1.087   2.934  0.7878  1.0945 -0.1149
  120PVA     H120232   3.491   1.018   2.850 -2.2185 -0.4860  1.5752
  120PVA     H220233   3.469   1.177   2.884  1.0804  0.3677 -1.7394
  120PVA     C220234   3.654   1.126   2.955  0.8184  0.3290 -0.2980
  120PVA     H320235   3.703   1.104   2.859  0.0160  3.7122 -1.6373
  120PVA     O120236   3.686   1.042   3.057  0.2596 -0.0089  0.7347
  120PVA     H420237   3.758   1.088   3.103  1.7465 -2.9100  1.5475
  120PVA     C320238   3.687   1.274   3.002  0.4109  1.0670 -0.9212
  120PVA     H520239   3.794   1.288   3.022  0.4749  2.4580 -2.0801
  120PVA     H620240   3.639   1.294   3.099 -2.9223 -3.8163 -1.2023
  120PVA     C420241   3.645   1.376   2.888  1.0347 -0.7351  0.3971
  120PVA     H720242   3.673   1.335   2.790 -1.4913  0.6310 -0.9847
  120PVA     H820243   3.540   1.397   2.867  1.1016  1.4199  1.9322
  120PVA     C520244   3.702   1.518   2.892 -0.8821  0.5024  0.2280
  120PVA     H920245   3.654   1.587   2.963 -0.1671  1.0275  0.2117
  120PVA     O220246   3.832   1.522   2.938  0.7818  1.2086 -1.0633
  120PVA    H1020247   3.832   1.500   3.032 -0.9270 -2.0069 -1.6843
  120PVA     C620248   3.719   1.606   2.767  0.4662 -0.7035  0.9454
  120PVA    H1120249   3.781   1.561   2.688 -2.1508  0.5188 -2.0476
  120PVA    H1220250   3.624   1.590   2.714  1.6481 -2.7692 -0.7009
  120PVA     C720251   3.742   1.762   2.783  0.9511 -1.2855  1.2651
  120PVA    H1320252   3.779   1.776   2.886 -0.5751 -0.8143  1.7838
  120PVA    H1420253   3.656   1.827   2.761  0.3845 -1.8391  1.7851
  120PVA     C820254   3.862   1.809   2.712 -0.7576  1.6907 -0.2803
  120PVA    H1520255   3.934   1.727   2.726 -3.6034 -0.5708  2.5526
  120PVA     O320256   3.918   1.925   2.777 -0.1620 -0.9165 -0.7387
  120PVA    H1620257   3.965   1.984   2.715 -4.2979  0.4581 -2.9634
  120PVA     C920258   3.869   1.824   2.561 -0.0732  0.5426  0.2990
  120PVA    H1720259   3.791   1.764   2.513  0.5231  1.3583 -1.8326
  120PVA    H1820260   3.844   1.928   2.535  0.7246  0.0036 -3.1156
  120PVA    C1020261   4.010   1.800   2.503  0.4555 -0.6956 -1.0458
  120PVA    H1920262   4.076   1.859   2.568 -2.0947 -0.6658  1.7636
  120PVA    H2020263   4.033   1.694   2.520  3.4058  0.1867  1.2575
  120PVA    C1120264   4.024   1.825   2.355 -0.0526  0.0387  1.6701
  120PVA    H2120265   4.067   1.731   2.318 -1.2227 -0.2589  1.0205
  120PVA     O420266   3.906   1.841   2.280 -0.0611 -0.4805  0.1444
  120PVA    H2220267   3.841   1.894   2.330 -0.8176  0.0854 -1.3602
  120PVA    C1220268   4.123   1.928   2.324  0.2924  0.9346  0.2194
  120PVA    H2320269   4.061   2.019   2.319  0.9572  1.4164  0.5000
  120PVA    H2420270   4.196   1.948   2.405  0.9444  0.4044 -0.2277
  120PVA    C1320271   4.207   1.912   2.200  0.2038 -0.0969 -0.8633
  120PVA    H2520272   4.130   1.874   2.132 -4.0041  0.0993  3.3433
  120PVA    H2620273   4.283   1.835   2.221  3.3597  3.5131  2.6358
  120PVA    C1420274   4.283   2.023   2.130  0.3432 -0.6824  0.2694
  120PVA    H2720275   4.206   2.081   2.078  0.1166 -2.2199 -1.1937
  120PVA     O520276   4.365   1.954   2.036 -0.3592  0.0241  0.1656
  120PVA    H2820277   4.451   1.948   2.080 -0.0046  1.7989 -0.2019
  120PVA    C1520278   4.376   2.109   2.218 -1.2249 -1.2316 -0.1460
  120PVA    H2920279   4.452   2.046   2.266  1.1637  1.4364 -0.2264
  120PVA    H3020280   4.320   2.160   2.298 -0.1902  2.4018 -1.5610
  120PVA    C1620281   4.448   2.227   2.143  0.3495  0.0676  0.2181
  120PVA    H3120282   4.370   2.291   2.101  1.4562  2.1515  1.1953
  120PVA    H3220283   4.509   2.203   2.055 -0.6903  1.3136 -0.8885
  120PVA    C1720284   4.545   2.299   2.235 -0.0040  0.3334  0.2045
  120PVA    H3320285   4.521   2.311   2.341  2.2176 -1.7759  1.0365
  120PVA     O620286   4.660   2.212   2.242  0.0375  0.4234 -0.7782
  120PVA    H3420287   4.721   2.223   2.167 -1.1058  0.4941 -1.7179
  120PVA    C1820288   4.601   2.426   2.167 -0.6238 -0.6364 -1.1939
  120PVA    H3520289   4.517   2.497   2.167 -0.6497 -0.6397  0.5195
  120PVA    H3620290   4.620   2.408   2.060 -1.9638 -0.8013 -1.4161
  120PVA    C1920291   4.712   2.513   2.238 -0.4562 -0.4929 -0.7893
  120PVA    H3720292   4.684   2.524   2.344  2.0308 -2.8900  0.2717
  120PVA    H3820293   4.816   2.479   2.244  0.3367  1.9694  1.1182
  120PVA    C2020294   4.712   2.654   2.162  0.4514  1.0356  0.4393
  120PVA    H3920295   4.669   2.640   2.062  2.6946 -0.3450 -0.4031
  120PVA     O720296   4.841   2.703   2.156 -0.7072 -0.1571  0.5450
  120PVA    H4020297   4.847   2.770   2.086  0.6276 -0.6959  0.1075
  120PVA    C2120298   4.645   2.762   2.241  0.4123 -0.2298 -0.7435
  120PVA    H4120299   4.694   2.799   2.333 -2.0643  0.6260  0.3121
  120PVA    H4220300   4.549   2.723   2.276 -0.1096  3.5730  2.8966
  120PVA    C2220301   4.600   2.899   2.178  1.0285 -0.3047  0.5143
  120PVA    H4320302   4.581   2.968   2.261  3.5022  1.0175  0.0772
  120PVA    H4420303   4.685   2.928   2.115  1.1108  0.0851  0.8012
  120PVA    C2320304   4.473   2.901   2.095 -0.0116 -0.4312  0.0745
  120PVA    H4520305   4.399   2.893   2.176  3.0815 -0.1155  3.1477
  120PVA     O820306   4.468   2.802   1.995 -0.6512  0.7926  0.5107
  120PVA    H4620307   4.557   2.795   1.956 -1.5072 -0.0973 -1.4198
  120PVA    C2420308   4.467   3.043   2.025  0.2982  0.7399 -0.6820
  120PVA    H4720309   4.487   3.120   2.100  1.4932 -0.7340  0.5945
  120PVA    H4820310   4.537   3.052   1.941  0.0269 -0.0224 -1.0103
  120PVA    C2520311   4.336   3.076   1.964  1.6060  0.1480  0.2192
  120PVA    H4920312   4.245   3.063   2.024  0.5842 -2.8985 -1.7515
  120PVA    H5020313   4.330   3.005   1.881 -2.3560  0.1659  0.2665
  120PVA    C2620314   4.304   3.219   1.903 -0.8916  0.5573 -0.5484
  120PVA    H5120315   4.202   3.220   1.863 -2.4119  0.5298  2.9621
  120PVA     O920316   4.278   3.304   2.021  0.6935 -0.3910 -0.2751
  120PVA    H5220317   4.352   3.320   2.082 -2.0182 -0.0413  3.3068
  120PVA    C2720318   4.413   3.290   1.816  0.2589 -0.1085 -0.3853
  120PVA    H5320319   4.412   3.250   1.714 -1.2551  0.9891 -0.8363
  120PVA    H5420320   4.502   3.264   1.875  1.3901  2.4738 -0.7862
  120PVA    C2820321   4.390   3.448   1.809  0.1003 -0.8569  1.1891
  120PVA    H5520322   4.382   3.510   1.899 -4.4486 -0.4228  0.7167
  120PVA    H5620323   4.284   3.454   1.783 -0.3374  0.0997  3.0715
  120PVA    C2920324   4.485   3.507   1.701  0.1461  1.1285  0.3455
  120PVA    H5720325   4.469   3.449   1.609 -2.7633 -0.0808  1.4882
  120PVA    O1020326   4.440   3.640   1.664 -0.1936 -0.2574  0.8308
  120PVA    H5820327   4.360   3.653   1.609 -2.1739 -1.0860  3.2868
  120PVA    C3020328   4.632   3.492   1.746 -0.1769  0.1249 -0.5116
  120PVA    H5920329   4.661   3.566   1.822  2.0393  0.8610 -1.9778
  120PVA    H6020330   4.657   3.395   1.791  0.7972 -0.7601 -2.8175
  120PVA    C3120331   4.756   3.494   1.650  0.4340  0.2130  0.9387
  120PVA    H6120332   4.742   3.412   1.578 -1.6137  2.4140 -1.3837
  120PVA    H6220333   4.846   3.481   1.711  2.0063 -0.5051 -1.3954
  120PVA    C3220334   4.764   3.640   1.588 -0.2254  0.5134  0.0703
  120PVA    H6320335   4.799   3.715   1.661  2.4796 -1.2240  0.7111
  120PVA    O1120336   4.658   3.679   1.512 -0.0320 -0.9389 -0.4534
  120PVA    H6420337   4.594   3.642   1.575  1.1953  1.2930  2.3391
  120PVA    C3320338   4.880   3.643   1.489  0.0057 -1.1600  0.7921
  120PVA    H6520339   4.974   3.621   1.540  0.7644  2.4768  1.2036
  120PVA    H6620340   4.914   3.743   1.462  5.1874 -0.7418  6.6111
  120PVA    C3420341   4.862   3.581   1.356  0.2651 -0.0563 -0.5083
  120PVA    H6720342   4.839   3.476   1.377 -1.8703  0.8464  2.2298
  120PVA    H6820343   4.781   3.640   1.312 -0.2353  2.9182  3.8092
  120PVA    C3520344   4.983   3.611   1.252  0.3456  0.4584 -0.9614
  120PVA    H6920345   4.966   3.706   1.200 -1.9380 -0.7312 -2.6163
  120PVA    O1220346   5.104   3.613   1.322 -0.3646  0.2738 -0.5951
  120PVA    H7020347   5.183   3.629   1.268  1.2569  1.4759  1.9428
  120PVA    C3620348   4.976   3.503   1.139  0.0560 -0.6873 -0.0118
  120PVA    H7120349   5.035   3.414   1.164  5.6793  3.0975  2.2503
  120PVA    H7220350   4.880   3.460   1.109 -1.3061  1.6639  0.7497
  120PVA    C3720351   5.033   3.555   1.015 -0.0679  0.9712  0.0188
  120PVA    H7320352   5.118   3.614   1.052  0.5273 -0.3651  0.8668
  120PVA    H7420353   4.955   3.623   0.977 -2.3312 -1.6099 -0.2406
  120PVA    C3820354   5.064   3.467   0.894  0.0558  0.9619 -0.3858
  120PVA    H7520355   5.146   3.402   0.927 -1.3126  0.4736  2.4641
  120PVA    O1320356   4.942   3.398   0.888 -0.4670  0.6347  0.4185
  120PVA    H7620357   4.903   3.434   0.807  2.2390 -0.5876 -1.5742
  120PVA    C3920358   5.092   3.544   0.765  1.3096 -0.4174  0.3807
  120PVA    H7720359   5.170   3.617   0.790  2.2326 -0.3377 -2.4439
  120PVA    H7820360   5.008   3.607   0.734  3.0572 -0.2326 -5.0377
  120PVA    C4020361   5.143   3.446   0.651 -0.0667 -1.3014 -0.3680
  120PVA    H7920362   5.213   3.371   0.690 -1.6212 -2.1127  1.0008
  120PVA    H8020363   5.062   3.386   0.608 -0.8773 -2.9262  3.0402
  120PVA    C4120364   5.216   3.528   0.528 -0.6668  1.1145 -0.2335
  120PVA    H8120365   5.160   3.497   0.439  1.3039 -0.8776 -0.8717
  120PVA    O1420366   5.191   3.667   0.533  0.3767  0.0297 -0.0687
  120PVA    H8220367   5.234   3.712   0.459 -2.4575  2.5275 -0.3673
  120PVA    C4220368   5.367   3.503   0.510 -0.2253  0.1886  0.8141
  120PVA    H8320369   5.429   3.583   0.554 -1.1521  1.8256 -0.6987
  120PVA    H8420370   5.386   3.404   0.553  2.9012  0.1144 -0.4362
  120PVA    C4320371   5.400   3.468   0.368 -0.2816 -0.1438  0.1383
  120PVA    H8520372   5.401   3.562   0.311 -0.8651 -0.4417 -0.3749
  120PVA    H8620373   5.319   3.405   0.329 -3.2175  2.1891  1.9899
  120PVA    C4420374   5.543   3.404   0.326  0.2530  0.6244 -0.0929
  120PVA    H8720375   5.553   3.312   0.384 -0.8403  0.8641  0.5166
  120PVA    O1520376   5.540   3.374   0.194 -0.7544  0.4686  0.3355
  120PVA    H8820377   5.529   3.278   0.185 -2.2999  0.7977 -5.0004
  120PVA    C4520378   5.660   3.487   0.346  0.0959  0.5890 -0.1879
  120PVA    H8920379   5.684   3.454   0.448  0.1104 -3.5742 -1.3685
  120PVA    H9020380   5.635   3.594   0.350  1.1691  0.8341  0.4742
  120PVA    C4620381   5.799   3.468   0.267 -0.9908  0.1949  0.0031
  120PVA    H9120382   5.823   3.361   0.265 -0.2646  0.2948  1.7073
  120PVA    H9220383   5.777   3.508   0.168 -0.0896  2.5243  0.6882
  120PVA    C4720384   5.913   3.553   0.325 -0.4545  0.3804  0.1073
  120PVA    H9320385   5.901   3.648   0.272 -1.8234  1.7116  2.6081
  120PVA    O1620386   5.914   3.586   0.473  1.0169  0.1707  0.2429
  120PVA    H9420387   5.865   3.519   0.524 -0.7340  0.5788 -0.8208
  120PVA    C4820388   6.059   3.506   0.302 -0.6640  0.3116  0.1451
  120PVA    H9520389   6.075   3.402   0.331 -0.6825  0.2930  0.0889
  120PVA    H9620390   6.128   3.567   0.362 -0.7219 -1.8762  2.5989
  120PVA    C4920391   6.108   3.497   0.156 -0.2628 -0.2652 -0.2093
  120PVA    H9720392   6.037   3.426   0.112  0.0427  0.2530 -1.5870
  120PVA    H9820393   6.077   3.591   0.110  1.1145 -0.0091 -0.6595
  120PVA    C5020394   6.250   3.459   0.140 -0.9119 -0.7909 -0.1843
  120PVA    H9920395   6.246   3.441   0.032  5.9150 -2.0374 -0.6666
  120PVA    O1720396   6.343   3.570   0.161 -0.2223 -0.0330 -0.3835
  120PVA   H10020397   6.402   3.534   0.230  0.2431 -2.1995 -1.8060
  120PVA    C5120398   6.290   3.327   0.210 -0.2858 -0.7133  0.2673
  120PVA   H10120399   6.222   3.256   0.164 -4.5556  2.5684  0.8895
  120PVA   H10220400   6.270   3.345   0.317  1.2422  5.2156 -0.0727
  121PVA     C120401   3.059   0.814   3.088 -0.4665 -0.8513  0.0691
  121PVA     H120402   3.128   0.737   3.123  3.0325  2.7899  1.9104
  121PVA     H220403   2.969   0.828   3.149 -1.6489 -1.3532 -1.4989
  121PVA     C220404   2.990   0.752   2.954  0.4695  0.8524 -0.6033
  121PVA     H320405   3.048   0.661   2.934  2.1521  1.3879  1.4641
  121PVA     O120406   3.019   0.852   2.851  0.5530  0.4099 -0.0386
  121PVA     H420407   3.022   0.804   2.767  1.1461 -0.8145  0.6573
  121PVA     C320408   2.832   0.713   2.958  0.9844 -0.3682 -0.0156
  121PVA     H520409   2.773   0.806   2.962  0.7104 -0.5121  4.1695
  121PVA     H620410   2.815   0.658   3.052 -0.3012 -3.5710 -1.9663
  121PVA     C420411   2.765   0.633   2.845  0.8360 -0.7593 -0.3690
  121PVA     H720412   2.774   0.684   2.748 -0.8723 -0.7831 -0.5849
  121PVA     H820413   2.810   0.533   2.841  2.0755 -0.1886 -1.2239
  121PVA     C520414   2.608   0.624   2.850 -1.1798  0.7020  0.5506
  121PVA     H920415   2.584   0.607   2.956 -2.6987  1.5539  0.3665
  121PVA     O220416   2.552   0.743   2.819 -0.1389  0.3192 -0.0546
  121PVA    H1020417   2.459   0.717   2.803 -0.5841  1.8607 -0.1541
  121PVA     C620418   2.529   0.528   2.745 -0.9619  0.5112 -0.1143
  121PVA    H1120419   2.489   0.592   2.665  0.4530  1.5121 -0.0497
  121PVA    H1220420   2.609   0.473   2.695  0.8764  0.3706  2.7727
  121PVA     C720421   2.382   0.459   2.789  0.5381  0.9017  0.1899
  121PVA    H1320422   2.337   0.544   2.842 -0.2511  0.8986 -0.4544
  121PVA    H1420423   2.399   0.379   2.862  4.4129 -1.9217 -3.3287
  121PVA     C820424   2.267   0.409   2.698  0.0075  0.8998  0.3339
  121PVA    H1520425   2.175   0.415   2.757 -1.0142 -1.1451 -0.9323
  121PVA     O320426   2.251   0.494   2.580  0.0209 -0.7696  0.4941
  121PVA    H1620427   2.314   0.459   2.515  2.1385  2.3880  0.6470
  121PVA     C920428   2.262   0.257   2.653  0.1906 -0.1493 -0.0525
  121PVA    H1720429   2.308   0.193   2.728 -2.2436 -0.4227  1.2960
  121PVA    H1820430   2.316   0.236   2.560  0.8037 -1.8257  0.6476
  121PVA    C1020431   2.127   0.183   2.621 -0.7028 -0.0791  1.5221
  121PVA    H1920432   2.072   0.239   2.544  3.0896 -3.9742 -4.9481
  121PVA    H2020433   2.080   0.203   2.718  0.9213 -0.5592  2.4416
  121PVA    C1120434   2.114   0.025   2.583 -0.4445  0.5873 -0.0797
  121PVA    H2120435   2.180   7.651   2.648 -5.3182 -3.3978  1.9928
  121PVA     O420436   2.152   7.671   2.438  1.1800 -0.6485 -0.4635
  121PVA    H2220437   2.070   7.665   2.386  1.3649 -0.6423 -0.7559
  121PVA    C1220438   1.975   7.649   2.629  1.0035  0.5258  0.6694
  121PVA    H2320439   1.913   0.044   2.586  1.6947 -0.1778 -1.7669
  121PVA    H2420440   1.962   7.653   2.738 -1.3312 -0.1938  0.4676
  121PVA    C1320441   1.893   7.516   2.580 -0.1366 -0.4127  2.0001
  121PVA    H2520442   1.884   7.483   2.475 -0.8373 -2.2521  2.6095
  121PVA    H2620443   1.961   7.441   2.623 -0.0207 -0.4959  1.6770
  121PVA    C1420444   1.742   7.507   2.635 -0.8786  0.6832  0.4948
  121PVA    H2720445   1.673   7.579   2.590 -1.0607 -1.4528 -3.0089
  121PVA     O520446   1.737   7.532   2.773 -0.4640  0.6707  0.0331
  121PVA    H2820447   1.821   7.500   2.810 -1.8534 -5.8394 -1.2147
  121PVA    C1520448   1.669   7.366   2.618 -0.7058 -0.1592 -0.5376
  121PVA    H2920449   1.736   7.280   2.632  1.9849  1.1663 -3.9058
  121PVA    H3020450   1.633   7.384   2.516 -2.6790  2.6247  0.5239
  121PVA    C1620451   1.541   7.348   2.697  0.7195  0.1734 -0.9497
  121PVA    H3120452   1.481   7.436   2.722 -0.4890 -1.6256  3.4189
  121PVA    H3220453   1.565   7.321   2.801  1.7364  0.6805 -1.0324
  121PVA    C1720454   1.430   7.237   2.655 -0.0853  0.9202 -0.6047
  121PVA    H3320455   1.414   7.265   2.550  2.9318 -0.0906 -1.4571
  121PVA     O620456   1.491   7.107   2.657 -0.1942 -0.9237  0.7577
  121PVA    H3420457   1.427   7.055   2.604 -1.2509  1.4758 -0.5124
  121PVA    C1820458   1.284   7.224   2.714 -0.3378  0.3413 -0.0505
  121PVA    H3520459   1.289   7.164   2.806  0.5961  0.8594  0.2502
  121PVA    H3620460   1.244   7.320   2.747  0.4928 -0.2538  3.0016
  121PVA    C1920461   1.175   7.151   2.642 -0.3360  0.4619 -0.3636
  121PVA    H3720462   1.208   7.047   2.645 -0.1039  0.5674  1.8984
  121PVA    H3820463   1.184   7.160   2.533  3.0897 -3.4328 -0.6269
  121PVA    C2020464   1.025   7.165   2.694 -0.6151  0.8365  1.1651
  121PVA    H3920465   1.011   7.115   2.790 -0.9334 -1.1079  0.1410
  121PVA     O720466   0.996   7.300   2.720  0.4178 -0.7104  0.4302
  121PVA    H4020467   0.995   7.322   2.814 -4.1691 -0.8258  0.6454
  121PVA    C2120468   0.909   7.123   2.593  0.3403 -0.4145 -0.0107
  121PVA    H4120469   0.907   7.191   2.507  2.6299 -0.4414 -0.1552
  121PVA    H4220470   0.942   7.022   2.566  1.5839  0.1944 -0.8794
  121PVA    C2220471   0.757   7.109   2.652 -0.1462  0.1917 -0.2379
  121PVA    H4320472   0.757   7.033   2.731 -1.7745  0.0833 -0.3139
  121PVA    H4420473   0.714   7.194   2.705 -0.5838  1.6850 -2.8380
  121PVA    C2320474   0.662   7.062   2.543  0.9701 -0.2301  0.0223
  121PVA    H4520475   0.731   6.999   2.485  2.9922  0.6873  1.3002
  121PVA     O820476   0.633   7.176   2.464  0.8907 -0.0007 -0.3474
  121PVA    H4620477   0.720   7.178   2.421  1.0894 -0.9626 -0.0180
  121PVA    C2420478   0.527   6.970   2.588 -0.3333 -0.2653 -0.4915
  121PVA    H4720479   0.567   6.873   2.619 -3.1518 -0.5113  2.9035
  121PVA    H4820480   0.489   7.008   2.684 -0.6121 -3.4003  0.7475
  121PVA    C2520481   0.411   6.957   2.486  0.2967  0.0879  1.2655
  121PVA    H4920482   0.335   7.036   2.500 -3.2084 -2.5820 -0.9089
  121PVA    H5020483   0.451   6.979   2.386  0.7005 -2.2523  0.8648
  121PVA    C2620484   0.320   6.826   2.483  1.0128  0.8359 -0.2688
  121PVA    H5120485   0.364   6.725   2.487 -1.9613 -0.6932 -2.3104
  121PVA     O920486   0.234   6.833   2.598  0.4532  0.0203  0.1342
  121PVA    H5220487   0.238   6.923   2.634 -0.3829 -0.2463  0.9342
  121PVA    C2720488   0.218   6.805   2.360  0.1217 -0.2063 -0.5234
  121PVA    H5320489   0.273   6.765   2.273  1.9462 -2.1279  1.3718
  121PVA    H5420490   0.177   6.903   2.334 -2.3776 -0.7718  0.9716
  121PVA    C2820491   0.096   6.708   2.391  1.0958 -0.3751  0.0147
  121PVA    H5520492   0.144   6.613   2.418  3.5707  0.4567 -1.1350
  121PVA    H5620493   0.018   6.749   2.457 -1.3091 -0.9633 -2.2914
  121PVA    C2920494   0.006   6.692   2.253  0.5148 -1.1829  0.7568
  121PVA    H5720495   7.763   6.800   2.232  0.4856 -1.2904  0.2051
  121PVA    O1020496   0.082   6.617   2.159  0.6230  0.1842 -0.6957
  121PVA    H5820497   0.109   6.676   2.087  0.9535 -0.5343 -1.1769
  121PVA    C3020498   7.624   6.644   2.252 -0.4703  0.0668  0.1253
  121PVA    H5920499   7.571   6.737   2.272  1.9874  1.7570 -0.7494
  121PVA    H6020500   7.602   6.579   2.338  1.4787 -1.9016 -0.7652
  121PVA    C3120501   7.540   6.600   2.119  0.2452  0.8420 -0.4891
  121PVA    H6120502   7.525   6.672   2.037 -5.1390 -1.8092 -2.2950
  121PVA    H6220503   7.597   6.521   2.070  5.0701  1.5199  3.3316
  121PVA    C3220504   7.382   6.557   2.137 -0.6915  0.0117 -0.9329
  121PVA    H6320505   7.400   6.479   2.211 -0.8131  2.1124  1.4439
  121PVA    O1120506   7.324   6.667   2.208  0.4584  0.2629 -0.3393
  121PVA    H6420507   7.227   6.667   2.202  0.4494  1.7773 -0.3773
  121PVA    C3320508   7.315   6.494   2.004  0.4245 -0.3353  0.4940
  121PVA    H6520509   7.240   6.418   2.030  1.4250 -2.0100 -1.2666
  121PVA    H6620510   7.388   6.435   1.946 -0.7213 -1.0962 -0.2226
  121PVA    C3420511   7.238   6.594   1.910  0.8711  0.2505  1.5839
  121PVA    H6720512   7.181   6.668   1.967 -5.6712  0.6956 -4.1500
  121PVA    H6820513   7.311   6.651   1.850  0.7699 -0.2927  0.9311
  121PVA    C3520514   7.129   6.531   1.799 -0.4900 -0.6773  1.0333
  121PVA    H6920515   7.201   6.480   1.734  4.3059  4.0507  1.8847
  121PVA    O1220516   7.028   6.435   1.852 -1.1253 -1.4562  0.5060
  121PVA    H7020517   7.082   6.380   1.911  1.4528 -0.5680 -0.8370
  121PVA    C3620518   7.052   6.647   1.718 -1.1453  0.6575  0.5300
  121PVA    H7120519   6.957   6.670   1.768 -2.1206  1.7304 -1.6800
  121PVA    H7220520   7.104   6.741   1.699  0.4364 -0.2860  0.0493
  121PVA    C3720521   6.998   6.585   1.583 -0.1843  0.6149 -0.2519
  121PVA    H7320522   6.929   6.504   1.609 -3.0694  3.1003  0.4391
  121PVA    H7420523   7.071   6.563   1.504 -2.8503 -1.4038 -2.3111
  121PVA    C3820524   6.898   6.683   1.505 -0.3726 -0.8157 -1.1480
  121PVA    H7520525   6.818   6.703   1.578  1.0536  3.4173 -0.4565
  121PVA    O1320526   6.961   6.812   1.480  0.7539  0.7090  0.5057
  121PVA    H7620527   6.929   6.886   1.534  0.6668  2.4565 -1.7536
  121PVA    C3920528   6.824   6.605   1.383 -0.7898 -0.1927 -1.4416
  121PVA    H7720529   6.783   6.508   1.414 -2.0401  0.3664 -1.2809
  121PVA    H7820530   6.897   6.592   1.302 -2.2223  0.6553 -2.9390
  121PVA    C4020531   6.714   6.684   1.316 -0.2728  0.6814 -0.0691
  121PVA    H7920532   6.633   6.682   1.390  0.3702 -0.2894  0.6317
  121PVA    H8020533   6.752   6.785   1.337 -0.5338  0.8522 -0.4059
  121PVA    C4120534   6.662   6.664   1.174  0.0639 -0.7291  0.5402
  121PVA    H8120535   6.735   6.696   1.098  0.7705 -2.9175  0.2190
  121PVA    O1420536   6.654   6.527   1.143 -0.4425  0.2786  0.1006
  121PVA    H8220537   6.584   6.504   1.206 -3.1273  0.4469 -2.5648
  121PVA    C4220538   6.538   6.743   1.122 -1.1186 -0.8048  0.6367
  121PVA    H8320539   6.451   6.692   1.164 -1.1766 -0.1151  1.3608
  121PVA    H8420540   6.536   6.845   1.161  1.0863  0.0178 -1.1740
  121PVA    C4320541   6.508   6.762   0.964 -0.0026  0.4567 -0.8451
  121PVA    H8520542   6.425   6.692   0.953  2.9647 -4.1535  2.4800
  121PVA    H8620543   6.595   6.715   0.916  1.4029  0.8419  1.2156
  121PVA    C4420544   6.461   6.907   0.904  0.1685 -0.3063 -0.4456
  121PVA    H8720545   6.553   6.953   0.865 -0.9223  0.6997 -1.9563
  121PVA    O1520546   6.406   6.981   1.007  0.5683 -0.1061  0.0672
  121PVA    H8820547   6.485   7.009   1.056 -0.2919  0.3512  1.2183
  121PVA    C4520548   6.355   6.907   0.787 -0.2145 -0.3664  0.2210
  121PVA    H8920549   6.399   6.904   0.687 -0.6066  2.7932 -0.1418
  121PVA    H9020550   6.304   6.810   0.795  1.1616 -1.1568 -0.3885
  121PVA    C4620551   6.258   7.040   0.760  0.1847 -1.0824 -0.0325
  121PVA    H9120552   6.194   7.043   0.850  0.5201  3.4638  0.2700
  121PVA    H9220553   6.296   7.142   0.774 -0.9291 -0.9274  2.5948
  121PVA    C4720554   6.158   7.036   0.626 -0.7451 -0.7177 -0.0959
  121PVA    H9320555   6.063   7.009   0.672 -0.6256  1.5526  1.6692
  121PVA    O1620556   6.215   6.955   0.529 -0.0570 -0.3464  1.2133
  121PVA    H9420557   6.282   7.013   0.489 -1.2629 -0.4742 -1.2004
  121PVA    C4820558   6.111   7.172   0.546  1.3198  0.0455 -0.7605
  121PVA    H9520559   6.095   7.270   0.593  0.5094  1.2038 -3.2252
  121PVA    H9620560   6.186   7.178   0.467 -1.0565  2.4131 -3.0771
  121PVA    C4920561   5.981   7.176   0.452 -0.0130  0.8420 -0.6540
  121PVA    H9720562   5.911   7.195   0.534  2.2014 -3.2315  2.5797
  121PVA    H9820563   5.932   7.079   0.436 -0.5610  0.7417  1.3307
  121PVA    C5020564   5.969   7.267   0.324 -0.6101 -0.3474  0.4548
  121PVA    H9920565   6.002   7.366   0.357 -0.2825  0.4929 -2.1580
  121PVA    O1720566   6.070   7.242   0.224 -0.1728  0.0203  0.1800
  121PVA   H10020567   6.163   7.235   0.249  0.8289  1.4805 -2.6793
  121PVA    C5120568   5.818   7.277   0.261 -0.4915  0.5770 -0.6143
  121PVA   H10120569   5.798   7.378   0.301  2.7748 -0.2798  3.9915
  121PVA   H10220570   5.747   7.224   0.327  3.3748 -0.7558  2.8960
  122PVA     C120571   6.659   3.573   0.993  0.0054 -0.7487 -0.3594
  122PVA     H120572   6.725   3.628   0.925 -1.8858  4.1868  1.3317
  122PVA     H220573   6.559   3.597   0.957 -0.7722 -2.1517  0.7669
  122PVA     C220574   6.685   3.636   1.135  0.7889  0.6683 -0.7909
  122PVA     H320575   6.642   3.735   1.120  1.9104  1.3432  0.2409
  122PVA     O120576   6.618   3.566   1.240 -0.1752  0.0791  0.6127
  122PVA     H420577   6.525   3.595   1.244 -0.7781 -1.2324 -1.7440
  122PVA     C320578   6.833   3.682   1.170 -2.0956 -0.8513 -0.2097
  122PVA     H520579   6.876   3.749   1.095  2.2014  1.9533  4.1338
  122PVA     H620580   6.911   3.605   1.179 -3.3771 -1.9614  2.8773
  122PVA     C420581   6.832   3.757   1.305  0.4817  0.3891 -0.4204
  122PVA     H720582   6.801   3.861   1.294 -2.9409 -0.6771 -2.3728
  122PVA     H820583   6.762   3.711   1.376 -0.0417  3.5404  1.2888
  122PVA     C520584   6.971   3.765   1.364 -0.3596 -0.5998 -0.5059
  122PVA     H920585   7.008   3.661   1.364 -0.1736 -0.5351 -1.1178
  122PVA     O220586   7.055   3.850   1.299 -0.5853  0.4952 -0.6906
  122PVA    H1020587   7.044   3.829   1.205 -0.4199  1.1444 -0.8573
  122PVA     C620588   6.984   3.801   1.516  0.4705 -0.2291  0.1758
  122PVA    H1120589   6.937   3.892   1.556  0.2851  0.5482 -1.7012
  122PVA    H1220590   6.932   3.716   1.563  3.1470 -1.2333  1.5213
  122PVA     C720591   7.123   3.819   1.584 -0.3270 -0.4629  1.2355
  122PVA    H1320592   7.188   3.898   1.543 -2.2988 -0.4936 -2.3565
  122PVA    H1420593   7.176   3.724   1.575  0.0652 -0.1925  0.6486
  122PVA     C820594   7.125   3.846   1.738 -0.1118  0.2597 -0.2066
  122PVA    H1520595   7.227   3.863   1.777  0.8491  0.4543 -2.6072
  122PVA     O320596   7.064   3.727   1.809 -0.0008  0.7442 -0.3205
  122PVA    H1620597   6.978   3.697   1.775  0.3390 -3.0983  1.7007
  122PVA     C920598   7.059   3.992   1.776 -0.4029  1.4244  0.6242
  122PVA    H1720599   7.000   3.983   1.868  1.6243 -2.6736  1.7265
  122PVA    H1820600   7.000   4.035   1.693 -0.0539  3.3882  1.3474
  122PVA    C1020601   7.157   4.110   1.787  0.9592 -0.6670 -0.3467
  122PVA    H1920602   7.227   4.099   1.872  1.2294  0.1908 -0.4463
  122PVA    H2020603   7.222   4.113   1.699 -1.2598  3.3043 -2.0651
  122PVA    C1120604   7.093   4.252   1.795  0.2841 -1.1103 -0.5841
  122PVA    H2120605   7.130   4.313   1.711  1.8510 -1.6576 -0.3225
  122PVA     O420606   6.958   4.245   1.783  0.5382  0.0479  0.0321
  122PVA    H2220607   6.931   4.152   1.782 -0.9338  0.4342  1.0077
  122PVA    C1220608   7.123   4.329   1.928 -0.0635  1.1931 -0.9888
  122PVA    H2320609   7.224   4.306   1.964 -0.1700  2.1979  0.0247
  122PVA    H2420610   7.053   4.298   2.006  0.9345  0.8664 -0.1962
  122PVA    C1320611   7.132   4.478   1.916  0.1698  0.3420 -0.1653
  122PVA    H2520612   7.186   4.521   1.831  0.6624  0.8722  0.4003
  122PVA    H2620613   7.179   4.503   2.013 -0.9065  2.6179 -0.1664
  122PVA    C1420614   6.995   4.550   1.925  0.2667 -0.2604  0.2683
  122PVA    H2720615   7.035   4.651   1.913  1.0898 -0.8731 -3.3634
  122PVA     O520616   6.917   4.515   1.809 -0.8432  0.1689 -0.3811
  122PVA    H2820617   6.968   4.433   1.798  0.9812  1.3350 -0.9384
  122PVA    C1520618   6.922   4.549   2.062 -0.6266  0.7703  0.7320
  122PVA    H2920619   6.931   4.453   2.115  0.1492  0.8613  0.7677
  122PVA    H3020620   6.998   4.592   2.127 -0.9431  0.0924  1.5697
  122PVA    C1620621   6.778   4.607   2.066  0.3267  0.1662 -0.8807
  122PVA    H3120622   6.721   4.532   2.011  1.3597 -0.7757 -0.7036
  122PVA    H3220623   6.741   4.628   2.168 -1.7824 -1.4803 -1.2358
  122PVA    C1720624   6.772   4.752   1.991  0.3097 -0.2299 -0.4377
  122PVA    H3320625   6.855   4.820   2.014 -3.5251  3.7360  3.4579
  122PVA     O620626   6.776   4.733   1.851 -0.4410 -0.1598  0.5202
  122PVA    H3420627   6.847   4.667   1.837  0.5017  0.8193  0.5510
  122PVA    C1820628   6.639   4.819   2.042  0.5761  1.4564  0.6638
  122PVA    H3520629   6.543   4.767   2.027  1.8386 -0.9399  0.3797
  122PVA    H3620630   6.629   4.838   2.150 -1.7104 -1.7889  1.1845
  122PVA    C1920631   6.613   4.964   1.985  0.0561 -1.3599 -0.0889
  122PVA    H3720632   6.706   5.019   2.004 -1.9243  1.0500  4.1585
  122PVA    H3820633   6.541   5.012   2.052 -0.8654  1.0408 -2.6317
  122PVA    C2020634   6.564   4.980   1.842 -0.6201  1.4762  0.3419
  122PVA    H3920635   6.655   4.959   1.784 -0.2554 -2.3319  1.9865
  122PVA     O720636   6.454   4.892   1.806 -0.2194  0.1161 -0.1988
  122PVA    H4020637   6.480   4.809   1.849 -2.2579 -0.3226  0.3254
  122PVA    C2120638   6.506   5.118   1.818  0.1425  0.4649  0.5506
  122PVA    H4120639   6.556   5.201   1.870  0.2995 -0.5592  2.0954
  122PVA    H4220640   6.412   5.115   1.874  1.3998 -4.4352  2.9337
  122PVA    C2220641   6.486   5.156   1.661 -0.3228 -0.6014 -0.0635
  122PVA    H4320642   6.448   5.063   1.617  0.7893  0.7458 -4.3907
  122PVA    H4420643   6.589   5.155   1.623  0.9761 -2.3379  3.0539
  122PVA    C2320644   6.393   5.280   1.623 -0.1628  0.1810  0.4217
  122PVA    H4520645   6.300   5.260   1.678 -2.9832  1.4723 -3.4252
  122PVA     O820646   6.462   5.400   1.649  0.2704 -0.2189 -0.0013
  122PVA    H4620647   6.486   5.383   1.742  0.1431 -4.5490 -0.5431
  122PVA    C2420648   6.354   5.290   1.486  1.1650 -1.1106 -0.2929
  122PVA    H4720649   6.426   5.340   1.421  1.1229  0.6539  0.9437
  122PVA    H4820650   6.340   5.192   1.439 -2.5662 -0.0453 -1.8630
  122PVA    C2520651   6.207   5.357   1.465  0.0619 -0.8268  0.1173
  122PVA    H4920652   6.229   5.464   1.474 -0.2543 -0.7555  0.0663
  122PVA    H5020653   6.127   5.340   1.538  0.1004  1.5252  0.7576
  122PVA    C2620654   6.154   5.344   1.325  0.5300 -0.3345 -0.6088
  122PVA    H5120655   6.240   5.374   1.264  0.8696  2.4292  1.0267
  122PVA     O920656   6.122   5.203   1.299 -0.6481  0.3144 -0.1770
  122PVA    H5220657   6.097   5.162   1.384 -0.9392 -2.1119 -1.3581
  122PVA    C2720658   6.038   5.450   1.289  1.1837  0.1245  0.2251
  122PVA    H5320659   6.094   5.540   1.262 -1.0769  2.2339  2.0680
  122PVA    H5420660   5.972   5.463   1.376  2.6362  2.0244  1.1291
  122PVA    C2820661   5.945   5.422   1.155  0.2788 -0.4814  0.3490
  122PVA    H5520662   5.837   5.426   1.176  0.6108 -1.1960  2.4779
  122PVA    H5620663   5.960   5.513   1.097  3.3775 -0.3231  1.2419
  122PVA    C2920664   5.973   5.300   1.052  0.4099 -0.7934  0.2851
  122PVA    H5720665   6.079   5.318   1.031 -0.0452 -0.5080 -2.0246
  122PVA    O1020666   5.941   5.176   1.121  1.5922 -0.1065 -0.1752
  122PVA    H5820667   5.998   5.167   1.199  0.5714  1.2716  0.7693
  122PVA    C3020668   5.901   5.314   0.916 -0.8931  0.8100 -1.3270
  122PVA    H5920669   5.813   5.248   0.921 -0.0561 -0.3463 -1.3569
  122PVA    H6020670   5.866   5.418   0.917  1.1941  1.5946  1.3960
  122PVA    C3120671   5.981   5.269   0.790  1.2057  0.0505 -0.7796
  122PVA    H6120672   5.988   5.162   0.811 -2.1006  0.0913  1.3953
  122PVA    H6220673   6.084   5.307   0.795  2.0716 -1.9351 -2.4116
  122PVA    C3220674   5.926   5.290   0.646  0.3026  0.1879  0.0589
  122PVA    H6320675   5.890   5.391   0.623 -0.4150 -0.1277 -0.2370
  122PVA    O1120676   5.813   5.213   0.643  0.9800 -0.9028 -0.2790
  122PVA    H6420677   5.797   5.157   0.721  0.2411 -2.9576 -1.8000
  122PVA    C3320678   6.027   5.229   0.549  0.5805  0.4185  0.1009
  122PVA    H6520679   6.057   5.127   0.576 -0.5849  0.5906  2.2745
  122PVA    H6620680   6.127   5.271   0.564  1.8221 -2.4990  0.7499
  122PVA    C3420681   5.971   5.236   0.402 -1.0624 -0.3151  0.0695
  122PVA    H6720682   5.945   5.142   0.352 -0.0325  1.8055 -5.1583
  122PVA    H6820683   5.885   5.304   0.407 -1.0940  0.8401 -6.6080
  122PVA    C3520684   6.058   5.300   0.288  0.4789 -1.1065 -1.0268
  122PVA    H6920685   6.154   5.248   0.298  0.4865 -0.7273  1.6569
  122PVA    O1220686   6.090   5.429   0.335 -0.9452  0.0961  0.7556
  122PVA    H7020687   6.105   5.430   0.431 -5.6085  2.1829  1.7599
  122PVA    C3620688   5.994   5.304   0.142 -0.4644 -0.4014  0.2124
  122PVA    H7120689   6.067   5.354   0.079 -1.7679 -1.6039 -2.4189
  122PVA    H7220690   6.002   5.200   0.108  1.5145  0.4762 -2.3032
  122PVA    C3720691   5.854   5.368   0.133  0.4824 -0.4360 -1.5423
  122PVA    H7320692   5.773   5.318   0.187 -1.0051  2.7484 -0.5843
  122PVA    H7420693   5.806   5.350   0.036 -5.1635 -0.6284  0.9110
  122PVA    C3820694   5.830   5.515   0.158 -0.7853  0.4743 -0.4158
  122PVA    H7520695   5.816   5.523   0.267 -0.5069  0.3392 -0.3695
  122PVA    O1320696   5.957   5.582   0.140  0.8112 -0.0337  1.0817
  122PVA    H7620697   6.032   5.530   0.174  0.4844 -0.4667  1.1512
  122PVA    C3920698   5.708   5.582   0.075 -1.2824 -0.0786  0.8754
  122PVA    H7720699   5.640   5.502   0.041 -0.3010 -1.7402  2.6382
  122PVA    H7820700   5.740   5.624   8.076 -2.0114 -2.3341 -0.4300
  122PVA    C4020701   5.618   5.689   0.144 -0.1440 -0.1617  0.7289
  122PVA    H7920702   5.553   5.642   0.220 -0.7683  1.7910  1.4777
  122PVA    H8020703   5.692   5.747   0.201  0.3286 -0.2194  0.1782
  122PVA    C4120704   5.541   5.772   0.039 -0.6401  0.3242  0.3694
  122PVA    H8120705   5.617   5.807   8.065  1.3733 -0.1692  2.1719
  122PVA    O1420706   5.435   5.704   8.071  0.9521  0.4107  0.7171
  122PVA    H8220707   5.460   5.715   7.978  2.9851 -1.3377  0.9988
  122PVA    C4220708   5.475   5.898   0.111 -0.2158  0.2700 -1.2220
  122PVA    H8320709   5.373   5.874   0.143  0.2741  0.0751  0.2632
  122PVA    H8420710   5.534   5.946   0.190 -1.4418 -0.0774 -0.0553
  122PVA    C4320711   5.456   5.995   8.097  0.2476 -0.1250 -0.6265
  122PVA    H8520712   5.361   5.978   8.044  0.0480  1.3189 -0.7680
  122PVA    H8620713   5.537   5.974   8.025  2.7287 -0.4359  2.0890
  122PVA    C4420714   5.476   6.146   0.033  0.7159 -1.4290  0.2613
  122PVA    H8720715   5.567   6.158   0.092 -0.3324 -2.6603  2.2474
  122PVA    O1520716   5.374   6.200   0.117  0.8578 -0.4053 -0.2255
  122PVA    H8820717   5.378   6.297   0.121  0.8664 -0.4181  0.2355
  122PVA    C4520718   5.500   6.231   8.005  0.4133  0.5462  0.4925
  122PVA    H8920719   5.398   6.249   7.968  0.6287  0.0991 -0.3440
  122PVA    H9020720   5.556   6.177   7.927  0.0281  0.9900 -0.1022
  122PVA    C4620721   5.583   6.368   8.036 -0.2027 -0.8903  0.2231
  122PVA    H9120722   5.516   6.424   0.005 -2.4755  1.6688 -3.8647
  122PVA    H9220723   5.669   6.346   0.003 -3.2980 -0.8868  4.8491
  122PVA    C4720724   5.606   6.459   7.916  0.4006 -0.0479  0.8471
  122PVA    H9320725   5.502   6.472   7.883 -0.6784  0.6963  4.1269
  122PVA    O1620726   5.677   6.402   7.797  0.8530  0.0750 -0.0453
  122PVA    H9420727   5.650   6.455   7.720  1.4477  0.2848 -0.1152
  122PVA    C4820728   5.656   6.596   7.972 -0.3724 -0.2299  0.4362
  122PVA    H9520729   5.755   6.592   8.020  0.2077 -2.4830 -0.7869
  122PVA    H9620730   5.582   6.646   8.035  0.0581  0.2697  0.5510
  122PVA    C4920731   5.682   6.721   7.884 -0.4114 -0.9852 -0.8634
  122PVA    H9720732   5.587   6.745   7.836 -0.1160  0.6944 -0.6717
  122PVA    H9820733   5.756   6.681   7.814  0.6248 -1.6855  0.5731
  122PVA    C5020734   5.734   6.857   7.951  0.0271 -1.3029  0.0520
  122PVA    H9920735   5.800   6.856   8.039 -1.4812  1.4387  1.3449
  122PVA    O1720736   5.813   6.921   7.846  0.0775  0.0103 -0.0653
  122PVA   H10020737   5.904   6.927   7.880  1.1141 -3.1128 -1.8563
  122PVA    C5120738   5.629   6.965   7.982  0.1847  0.0048 -0.1387
  122PVA   H10120739   5.582   6.994   7.888 -0.8347  1.3530  0.7433
  122PVA   H10220740   5.557   6.925   8.055  0.7865 -2.7921 -0.9834
  123PVA     C120741   7.021   3.212   1.009  0.2509  0.3088  0.6367
  123PVA     H120742   6.967   3.139   1.070 -1.4845  1.2966  0.3547
  123PVA     H220743   7.062   3.285   1.080  1.6597  2.2634 -1.9995
  123PVA     C220744   7.143   3.158   0.916  0.8299 -0.4418  0.0214
  123PVA     H320745   7.144   3.198   0.813  1.2768  0.5216  0.3846
  123PVA     O120746   7.160   3.020   0.927  0.4715 -0.3332 -0.1484
  123PVA     H420747   7.173   2.978   1.013 -3.4062 -0.0031  0.7832
  123PVA     C320748   7.276   3.208   0.980  0.1660  0.6975  1.1899
  123PVA     H520749   7.259   3.311   1.014  0.4433  1.0497  0.2835
  123PVA     H620750   7.299   3.160   1.076 -1.2503  0.1722  1.2794
  123PVA     C420751   7.393   3.206   0.884 -1.0927 -0.3622  1.7860
  123PVA     H720752   7.393   3.105   0.839 -1.1934  0.4004 -0.0265
  123PVA     H820753   7.368   3.263   0.794 -3.3964 -1.1413  1.8500
  123PVA     C520754   7.522   3.244   0.961 -0.4252 -0.3155  0.3253
  123PVA     H920755   7.560   3.146   0.993  5.1820  1.0370 -1.0125
  123PVA     O220756   7.508   3.323   1.071 -0.1214 -0.5994 -0.7538
  123PVA    H1020757   7.542   3.412   1.053 -7.6367  2.7782 -2.1303
  123PVA     C620758   7.638   3.290   0.872  0.3390 -0.4552 -1.0653
  123PVA    H1120759   7.635   3.233   0.779 -0.1862 -0.8267 -0.8263
  123PVA    H1220760   7.643   3.398   0.853 -0.9634 -0.8298 -4.1542
  123PVA     C720761   0.015   3.256   0.923 -0.0068  0.0492  0.8085
  123PVA    H1320762   0.010   3.151   0.954  1.1388 -1.0904 -2.5053
  123PVA    H1420763   0.060   3.321   0.999 -1.5903 -1.0931  2.8524
  123PVA     C820764   0.128   3.266   0.819 -0.1958  0.3703  1.5514
  123PVA    H1520765   0.083   3.262   0.719 -0.3217  1.4296  1.5559
  123PVA     O320766   0.210   3.151   0.858 -0.6386  1.2779  1.0399
  123PVA    H1620767   0.157   3.070   0.848 -0.0902  0.8311  1.6307
  123PVA     C920768   0.219   3.401   0.828 -0.4140 -0.0394 -0.9142
  123PVA    H1720769   0.291   3.397   0.910 -1.4365 -2.9602 -0.0548
  123PVA    H1820770   0.145   3.482   0.836  0.9188  1.3004 -1.6208
  123PVA    C1020771   0.295   3.415   0.696 -0.0343  0.0163 -0.6002
  123PVA    H1920772   0.390   3.360   0.686  0.5852  1.2153 -1.6179
  123PVA    H2020773   0.240   3.384   0.607  1.3326 -1.8981 -0.8334
  123PVA    C1120774   0.328   3.564   0.703  0.2946 -0.8037  0.5994
  123PVA    H2120775   0.236   3.616   0.734  3.2145  2.9172  4.2068
  123PVA     O420776   0.421   3.579   0.805 -1.0224  1.5789  0.6260
  123PVA    H2220777   0.376   3.597   0.889  1.3420  0.0527  2.3395
  123PVA    C1220778   0.378   3.638   0.579  0.2033  0.5049 -0.9221
  123PVA    H2320779   0.474   3.610   0.533 -1.6204  2.4132 -6.8072
  123PVA    H2420780   0.304   3.606   0.504 -3.7738 -2.7804  3.7688
  123PVA    C1320781   0.394   3.794   0.589 -0.8066  0.5021 -0.0076
  123PVA    H2520782   0.293   3.837   0.600 -1.5548 -1.3058  0.6248
  123PVA    H2620783   0.426   3.814   0.692 -2.7932 -0.6030  0.8822
  123PVA    C1420784   0.486   3.865   0.487 -0.3503  1.0862 -0.0104
  123PVA    H2720785   0.448   3.843   0.386  0.1384 -1.7771  0.3701
  123PVA     O520786   0.612   3.801   0.491 -0.2253 -0.4082 -1.1931
  123PVA    H2820787   0.664   3.838   0.418 -3.5950 -3.1948 -5.5271
  123PVA    C1520788   0.505   4.012   0.523  0.5600 -0.0869  0.6415
  123PVA    H2920789   0.570   4.025   0.610 -0.4193  4.7272  0.9500
  123PVA    H3020790   0.408   4.056   0.548  1.8601  5.0697 -1.8620
  123PVA    C1620791   0.574   4.081   0.404 -0.8332 -0.0688 -0.2493
  123PVA    H3120792   0.572   4.012   0.319  0.8517  1.1784 -1.3712
  123PVA    H3220793   0.683   4.088   0.413 -0.6406 -0.3362 -2.0221
  123PVA    C1720794   0.518   4.222   0.353 -0.1222  0.7931 -0.0158
  123PVA    H3320795   0.410   4.220   0.371  0.3334 -0.2766  3.4988
  123PVA     O620796   0.545   4.247   0.217 -0.4257  0.3331  0.2210
  123PVA    H3420797   0.463   4.250   0.165 -1.4836  1.2502  1.8406
  123PVA    C1820798   0.583   4.335   0.440 -0.7465 -0.0141  0.5145
  123PVA    H3520799   0.520   4.421   0.461 -1.2180 -0.7611  2.3175
  123PVA    H3620800   0.583   4.302   0.545  0.3609 -4.3660 -0.6071
  123PVA    C1920801   0.728   4.380   0.400  0.9889 -1.1309  0.6467
  123PVA    H3720802   0.725   4.422   0.299 -2.0630 -5.6019 -1.4504
  123PVA    H3820803   0.791   4.291   0.393  4.0098  0.9737 -2.2035
  123PVA    C2020804   0.804   4.469   0.499  0.2050  0.1400  0.0820
  123PVA    H3920805   0.796   4.420   0.597 -3.1826 -2.2485 -1.1889
  123PVA     O720806   0.747   4.598   0.496  0.7354 -0.8224  0.4762
  123PVA    H4020807   0.749   4.623   0.402 -1.5658  1.6063  0.9809
  123PVA    C2120808   0.954   4.484   0.470 -0.2177 -0.6202  0.0043
  123PVA    H4120809   1.005   4.388   0.485  1.0352 -0.1984 -1.2819
  123PVA    H4220810   0.972   4.509   0.364 -1.6663  1.1383  0.1209
  123PVA    C2220811   1.025   4.574   0.573 -0.0275 -0.9425  0.3149
  123PVA    H4320812   0.942   4.645   0.581 -0.1452  0.0382 -5.3854
  123PVA    H4420813   1.035   4.530   0.673  0.5535 -4.6596 -1.1984
  123PVA    C2320814   1.145   4.637   0.516 -0.7145  0.0719 -1.5602
  123PVA    H4520815   1.192   4.576   0.437  2.1090 -0.5949  0.4801
  123PVA     O820816   1.086   4.755   0.475 -0.6617 -0.9354  0.2937
  123PVA    H4620817   1.057   4.807   0.552  1.6837 -1.4271  1.5754
  123PVA    C2420818   1.253   4.679   0.616 -0.1796 -0.3489  1.8099
  123PVA    H4720819   1.231   4.782   0.648  2.8882  0.4969  1.5030
  123PVA    H4820820   1.257   4.601   0.692  1.3827 -0.8230  1.2822
  123PVA    C2520821   1.397   4.654   0.558 -0.0327 -0.1968  0.0087
  123PVA    H4920822   1.419   4.691   0.457 -1.1304 -0.5848 -0.3865
  123PVA    H5020823   1.387   4.546   0.544 -2.8711  0.0320 -0.2024
  123PVA    C2620824   1.510   4.697   0.659 -0.5677 -0.5603  0.2689
  123PVA    H5120825   1.468   4.674   0.757  3.5858 -0.5950  2.2498
  123PVA     O920826   1.545   4.836   0.662  1.0045  0.2305 -0.7518
  123PVA    H5220827   1.575   4.848   0.754 -0.2373 -0.4013 -0.2451
  123PVA    C2720828   1.630   4.595   0.634 -0.1092  0.1875  0.5075
  123PVA    H5320829   1.596   4.491   0.632  1.7684 -0.4724 -1.1873
  123PVA    H5420830   1.657   4.617   0.530 -2.1114  1.7585  0.2776
  123PVA    C2820831   1.759   4.606   0.720 -1.1699 -0.4405  0.9440
  123PVA    H5520832   1.781   4.712   0.736  1.4950 -0.2279 -2.7291
  123PVA    H5620833   1.759   4.547   0.812 -1.5806 -0.4982  0.9092
  123PVA    C2920834   1.890   4.573   0.641 -0.6628 -0.8371  0.3961
  123PVA    H5720835   1.891   4.635   0.551  0.1632 -2.1483 -0.5411
  123PVA    O1020836   1.886   4.443   0.585  0.6588  0.0036  0.4308
  123PVA    H5820837   1.800   4.406   0.613  0.5890 -1.5910 -1.6601
  123PVA    C3020838   2.007   4.610   0.741  0.0073  0.2102 -0.1306
  123PVA    H5920839   1.977   4.559   0.833  1.3634 -0.3684  0.0082
  123PVA    H6020840   2.014   4.716   0.769 -5.0727  0.2494  2.1198
  123PVA    C3120841   2.140   4.567   0.670  0.0218  0.2811 -0.9476
  123PVA    H6120842   2.142   4.458   0.656 -0.1785  0.4891 -3.0077
  123PVA    H6220843   2.212   4.593   0.748 -0.0270 -1.3792 -0.3179
  123PVA    C3220844   2.171   4.626   0.531 -0.0755  0.1928  0.6726
  123PVA    H6320845   2.082   4.618   0.468  0.4076  2.7334 -0.4827
  123PVA    O1120846   2.201   4.768   0.558  0.1146  0.8918  0.5312
  123PVA    H6420847   2.205   4.825   0.480  1.7301  2.7486  1.8554
  123PVA    C3320848   2.281   4.565   0.449 -0.4498 -0.4328 -0.5941
  123PVA    H6520849   2.275   4.456   0.436  1.8165 -0.7434  0.4626
  123PVA    H6620850   2.377   4.560   0.503  1.5485 -1.3021 -3.8921
  123PVA    C3420851   2.328   4.638   0.313  0.6060 -1.2513 -0.1717
  123PVA    H6720852   2.350   4.736   0.357  0.8298 -2.9641  4.0008
  123PVA    H6820853   2.417   4.587   0.276  1.5313 -2.5489  3.3816
  123PVA    C3520854   2.208   4.636   0.220 -0.4535 -0.0926 -0.0538
  123PVA    H6920855   2.112   4.635   0.272 -0.8752 -1.1721 -0.8166
  123PVA    O1220856   2.200   4.515   0.153  0.1993 -0.0006 -0.2464
  123PVA    H7020857   2.294   4.495   0.140  0.0783 -0.9566  0.2366
  123PVA    C3620858   2.218   4.751   0.115  0.1598  0.3187  0.2452
  123PVA    H7120859   2.325   4.752   0.092  0.1730  0.3798  0.3090
  123PVA    H7220860   2.197   4.842   0.173  3.4680 -0.3050  2.7484
  123PVA    C3720861   2.133   4.755   8.084  0.3688  0.6040  0.4533
  123PVA    H7320862   2.180   4.682   8.018 -0.1637 -1.4125  2.1892
  123PVA    H7420863   2.030   4.737   0.020  1.1430 -5.1626  0.6947
  123PVA    C3820864   2.139   4.881   8.005  0.0240 -0.0201  0.3965
  123PVA    H7520865   2.237   4.931   7.996 -0.0246  0.0654  0.3343
  123PVA    O1320866   2.072   4.859   7.879 -0.5430  0.0456  0.5513
  123PVA    H7620867   2.005   4.789   7.876 -1.8481  1.2708 -2.0674
  123PVA    C3920868   2.060   4.995   8.073  0.8017  0.2953 -0.5117
  123PVA    H7720869   2.086   5.081   8.010 -2.4590  2.9112  1.3514
  123PVA    H7820870   2.094   5.022   0.076  1.4752 -0.5239 -0.5107
  123PVA    C4020871   1.906   4.991   8.065 -0.5287  0.7084 -0.2632
  123PVA    H7920872   1.868   4.896   0.009 -1.4347 -0.0825 -2.7187
  123PVA    H8020873   1.870   5.004   7.962 -0.9853  4.1373  0.2103
  123PVA    C4120874   1.823   5.087   0.070 -0.3002 -0.4394 -0.2375
  123PVA    H8120875   1.822   5.057   0.175 -1.9801  2.8716  0.8134
  123PVA    O1420876   1.865   5.218   0.046 -1.1857  0.0495 -0.6834
  123PVA    H8220877   1.867   5.239   8.049  1.7147 -2.5051 -1.3378
  123PVA    C4220878   1.676   5.106   0.035 -0.0877  0.2494  0.0373
  123PVA    H8320879   1.633   5.005   0.029  0.0899  0.2472 -1.6862
  123PVA    H8420880   1.663   5.127   8.025  2.8475  0.7831 -0.2726
  123PVA    C4320881   1.596   5.197   0.140  1.4169 -0.1075 -0.7756
  123PVA    H8520882   1.658   5.216   0.229  1.7593 -1.5168 -0.6876
  123PVA    H8620883   1.575   5.297   0.100 -1.2060  1.4286  3.7618
  123PVA    C4420884   1.461   5.148   0.183  0.3648 -0.2858 -0.2033
  123PVA    H8720885   1.440   5.180   0.285 -2.5997 -3.7034  0.4203
  123PVA    O1520886   1.459   5.008   0.174 -0.0754  0.5186 -0.5311
  123PVA    H8820887   1.369   4.973   0.184 -0.6968  2.3781  0.8790
  123PVA    C4520888   1.341   5.208   0.104  0.1404 -0.1393  0.2882
  123PVA    H8920889   1.339   5.166   0.003  0.4129  0.2158  0.1342
  123PVA    H9020890   1.341   5.318   0.101 -1.8369  0.0229  2.6931
  123PVA    C4620891   1.211   5.162   0.176 -0.2973  0.1683  0.2971
  123PVA    H9120892   1.212   5.052   0.182  4.3813  0.0644  0.8102
  123PVA    H9220893   1.223   5.189   0.281  1.2268  1.7060 -0.2372
  123PVA    C4720894   1.064   5.219   0.133 -0.0460  0.4287  0.2431
  123PVA    H9320895   1.078   5.272   0.038  2.2344 -2.1741 -0.9957
  123PVA    O1620896   1.025   5.315   0.232  0.1559  0.4331 -0.4969
  123PVA    H9420897   0.963   5.385   0.206  0.8929 -0.2732 -5.0384
  123PVA    C4820898   0.955   5.110   0.126  1.3394  1.0620 -1.0299
  123PVA    H9520899   1.017   5.021   0.142 -0.9755 -0.0354  3.9791
  123PVA    H9620900   0.879   5.128   0.203  1.7320 -1.8611  0.1725
  123PVA    C4920901   0.884   5.097   8.090  0.7562 -0.9585  0.9483
  123PVA    H9720902   0.872   5.198   8.050 -1.6874 -0.5414  2.5029
  123PVA    H9820903   0.787   5.057   0.025  0.4921  1.8550  4.2161
  123PVA    C5020904   0.952   4.998   7.985  0.4513 -0.6580 -0.3156
  123PVA    H9920905   0.993   4.916   8.045  0.3233  0.8185  1.8986
  123PVA    O1720906   1.054   5.063   7.917  0.7975  0.3050  0.4675
  123PVA   H10020907   1.069   5.018   7.832 -0.5428  3.1688 -1.4752
  123PVA    C5120908   0.867   4.934   7.864  0.0225  0.2193 -0.9404
  123PVA   H10120909   0.876   5.001   7.777 -0.7207 -0.9364 -1.9247
  123PVA   H10220910   0.761   4.921   7.889  0.6800 -1.3766  1.2347
  124PVA     C120911   4.964   0.177   7.695  0.7536  0.2108 -0.8006
  124PVA     H120912   4.920   0.090   7.746 -1.2918  2.2348  1.1356
  124PVA     H220913   4.966   0.262   7.764 -2.5984  1.1228 -1.6492
  124PVA     C220914   4.855   0.218   7.594 -0.1920 -0.1998 -0.5775
  124PVA     H320915   4.875   0.324   7.571  1.6837 -0.4198 -0.1521
  124PVA     O120916   4.854   0.156   7.467 -0.3960  0.5250 -0.7444
  124PVA     H420917   4.776   0.098   7.463  0.8415 -1.1267 -2.9868
  124PVA     C320918   4.709   0.212   7.653  2.0625  0.1979 -0.5448
  124PVA     H520919   4.706   0.254   7.755 -2.6941  1.2593 -0.8776
  124PVA     H620920   4.683   0.106   7.646  0.4945  0.4806  0.4368
  124PVA     C420921   4.571   0.285   7.598 -0.0581 -0.8385 -0.1176
  124PVA     H720922   4.609   0.385   7.572  1.2571 -0.6815  2.1608
  124PVA     H820923   4.540   0.235   7.505 -0.1935  0.5858 -0.8713
  124PVA     C520924   4.440   0.315   7.684 -0.2536 -0.1956  0.8544
  124PVA     H920925   4.413   0.223   7.738 -0.3339 -0.7524 -0.1102
  124PVA     O220926   4.452   0.445   7.755  0.3878 -0.2713 -0.4869
  124PVA    H1020927   4.406   0.441   7.841 -1.0792 -0.1822 -1.2488
  124PVA     C620928   4.302   0.350   7.599  0.5170 -0.6394 -0.0202
  124PVA    H1120929   4.311   0.434   7.529 -0.1449  0.4986  1.2151
  124PVA    H1220930   4.272   0.256   7.551 -0.5986  0.0425 -0.7042
  124PVA     C720931   4.165   0.372   7.677 -0.8915 -0.7063  0.0459
  124PVA    H1320932   4.189   0.442   7.758  0.0606 -0.8219 -0.1223
  124PVA    H1420933   4.147   0.274   7.724  2.2211 -1.6555 -0.4729
  124PVA     C820934   4.045   0.431   7.600  1.6593 -0.4525 -0.6109
  124PVA    H1520935   4.085   0.488   7.516  0.4411  2.5595  0.7055
  124PVA     O320936   3.983   0.324   7.530  0.3414  0.8455  0.7558
  124PVA    H1620937   3.925   0.350   7.456  0.4088 -3.3263 -1.0340
  124PVA     C920938   3.931   0.500   7.679  0.4126 -1.2095 -0.7445
  124PVA    H1720939   3.975   0.569   7.752  0.3964 -0.0122 -1.8135
  124PVA    H1820940   3.853   0.439   7.725 -0.6196  0.2819 -0.4519
  124PVA    C1020941   3.845   0.600   7.591  0.6975 -0.3264  0.6463
  124PVA    H1920942   3.910   0.672   7.540 -1.7425  1.9799  0.5862
  124PVA    H2020943   3.781   0.543   7.523 -2.3150  1.8523  1.4735
  124PVA    C1120944   3.746   0.684   7.672  0.9718 -0.5955 -0.4334
  124PVA    H2120945   3.692   0.618   7.741  0.1952  1.1751  0.7045
  124PVA     O420946   3.815   0.784   7.752  0.4396  0.3397 -0.3392
  124PVA    H2220947   3.747   0.854   7.757  0.2307  0.0163  2.4614
  124PVA    C1220948   3.635   0.758   7.590  0.3958  0.2861  0.1752
  124PVA    H2320949   3.671   0.810   7.501 -0.3969  0.9742  0.2385
  124PVA    H2420950   3.579   0.685   7.531 -1.9392  1.8873  0.2768
  124PVA    C1320951   3.524   0.841   7.672 -0.6465  0.4454 -0.1003
  124PVA    H2520952   3.466   0.791   7.751 -1.4166  1.3466 -0.0840
  124PVA    H2620953   3.576   0.916   7.732  0.7517 -0.1120 -0.5589
  124PVA    C1420954   3.416   0.933   7.602 -0.2811 -0.5226  0.1760
  124PVA    H2720955   3.338   0.870   7.558  0.1625 -0.7610 -0.2794
  124PVA     O520956   3.473   1.009   7.501  0.4672 -0.6589  0.1453
  124PVA    H2820957   3.449   0.983   7.410  1.7430  1.3904 -0.8239
  124PVA    C1520958   3.326   1.020   7.693  0.7793  0.7214  0.3865
  124PVA    H2920959   3.400   1.062   7.762  0.4026  0.9211  0.6716
  124PVA    H3020960   3.270   0.957   7.763  0.0510  0.8062 -0.1058
  124PVA    C1620961   3.219   1.138   7.635 -0.9783 -0.0318  0.4559
  124PVA    H3120962   3.269   1.192   7.553  4.2275 -3.3313  1.0291
  124PVA    H3220963   3.126   1.089   7.602 -1.4824  1.3971 -0.3528
  124PVA    C1720964   3.167   1.246   7.745  0.7804  0.9090 -0.1212
  124PVA    H3320965   3.146   1.194   7.840  2.2426 -0.7630 -0.6432
  124PVA     O620966   3.267   1.340   7.786  0.3255 -0.0003  0.1480
  124PVA    H3420967   3.316   1.360   7.704 -3.2599 -2.0215 -2.8120
  124PVA    C1820968   3.028   1.316   7.712  0.7714  1.0586 -0.0181
  124PVA    H3520969   3.053   1.379   7.625  0.7676 -0.4671 -1.1796
  124PVA    H3620970   2.963   1.244   7.662  2.7631  0.0746 -1.3425
  124PVA    C1920971   2.965   1.406   7.819  0.9106  0.3110 -0.4903
  124PVA    H3720972   2.948   1.344   7.907  2.8362  1.3151  0.6628
  124PVA    H3820973   3.035   1.488   7.842  0.6971  0.9631 -2.0264
  124PVA    C2020974   2.833   1.480   7.767 -0.6649  0.3705  0.5717
  124PVA    H3920975   2.876   1.513   7.671  0.5695 -3.6070 -0.4466
  124PVA     O720976   2.731   1.401   7.730 -0.6519  0.6324  0.6708
  124PVA    H4020977   2.758   1.310   7.746  0.2886  0.9508  0.9376
  124PVA    C2120978   2.772   1.600   7.854 -0.0651  0.9989 -0.4124
  124PVA    H4120979   2.793   1.684   7.788  0.8419 -1.6371 -3.7453
  124PVA    H4220980   2.811   1.613   7.956 -0.9110 -0.8318  0.2126
  124PVA    C2220981   2.616   1.598   7.871  0.4744 -0.9366  0.3269
  124PVA    H4320982   2.585   1.655   7.783  2.9773  0.0688  0.0314
  124PVA    H4420983   2.560   1.503   7.868 -1.7961  0.3520 -1.8953
  124PVA    C2320984   2.547   1.694   7.987 -1.1215 -0.3809 -0.4497
  124PVA    H4520985   2.567   1.662   8.090  1.3136 -0.8828 -1.0242
  124PVA     O820986   2.586   1.821   7.997 -0.4249  0.5456 -0.2419
  124PVA    H4620987   2.683   1.811   8.006 -0.5437  0.0495  0.4979
  124PVA    C2420988   2.382   1.705   7.994  0.0169 -0.0303  0.1582
  124PVA    H4720989   2.339   1.751   7.904 -1.8319  2.4626  2.1470
  124PVA    H4820990   2.338   1.607   8.012 -0.6362  0.5765  2.1715
  124PVA    C2520991   2.303   1.780   0.013  0.4468 -0.1508  0.2501
  124PVA    H4920992   2.357   1.874   0.026  6.0035 -2.4981 -2.5794
  124PVA    H5020993   2.337   1.735   0.106  1.8406  2.0362  0.8683
  124PVA    C2620994   2.143   1.793   0.005 -1.9519 -0.4490  0.6652
  124PVA    H5120995   2.123   1.856   8.014  0.8637  1.3096  1.1380
  124PVA     O920996   2.082   1.665   0.007 -1.9505 -0.5152  0.3403
  124PVA    H5220997   2.165   1.625   8.073  0.1520  2.7247  1.2783
  124PVA    C2720998   2.090   1.881   0.111  0.7282 -0.0638  0.2851
  124PVA    H5320999   2.121   1.983   0.086 -1.4480  1.2866  2.6229
  124PVA    H5421000   2.151   1.855   0.198  1.6171  2.0550  0.3451
  124PVA    C2821001   1.941   1.873   0.164  0.3062 -0.1986 -0.0748
  124PVA    H5521002   1.882   1.805   0.101  1.0549 -0.6547 -0.2974
  124PVA    H5621003   1.938   1.831   0.266  0.8135 -0.8713 -0.3318
  124PVA    C2921004   1.860   2.001   0.215 -1.2283 -0.3576 -0.4313
  124PVA    H5721005   1.929   2.056   0.281 -3.1495  0.4902  0.9642
  124PVA    O1021006   1.845   2.073   0.101 -0.4122  0.1891 -0.1925
  124PVA    H5821007   1.757   2.055   0.063 -0.6426 -1.2635  0.9544
  124PVA    C3021008   1.733   1.988   0.307  0.4629 -0.3871 -0.4627
  124PVA    H5921009   1.670   1.899   0.294 -4.6520  2.4798  1.6451
  124PVA    H6021010   1.763   1.979   0.413 -1.7238 -0.2476  0.2074
  124PVA    C3121011   1.648   2.126   0.293  0.5483 -0.7808 -0.5474
  124PVA    H6121012   1.594   2.113   0.199  1.7049  0.4042 -1.4126
  124PVA    H6221013   1.720   2.207   0.274  0.5718 -0.7806 -0.4609
  124PVA    C3221014   1.530   2.178   0.385  0.6739  0.1140  0.3491
  124PVA    H6321015   1.450   2.107   0.408  2.0777 -1.7608 -0.2441
  124PVA    O1121016   1.580   2.175   0.512  0.0619 -0.1845  0.2093
  124PVA    H6421017   1.650   2.241   0.525  1.1525 -0.8228 -2.0604
  124PVA    C3321018   1.446   2.314   0.348 -0.8636  0.5161 -0.4574
  124PVA    H6521019   1.342   2.282   0.334 -1.2454  0.9363  1.2729
  124PVA    H6621020   1.469   2.359   0.251  3.3495  1.7167  0.8708
  124PVA    C3421021   1.434   2.439   0.451  0.1322  0.5089  0.4114
  124PVA    H6721022   1.482   2.400   0.542 -3.2134 -1.2713  1.5802
  124PVA    H6821023   1.506   2.507   0.404 -1.1043  0.1136 -2.2478
  124PVA    C3521024   1.298   2.511   0.466 -0.3864 -0.3109  0.6066
  124PVA    H6921025   1.260   2.513   0.362  1.6668 -1.8856 -0.2505
  124PVA    O1221026   1.211   2.437   0.548  0.2785  0.4194 -0.1892
  124PVA    H7021027   1.260   2.415   0.629 -0.2354  1.1991  0.3433
  124PVA    C3621028   1.284   2.661   0.530  1.0330  0.2174  0.6941
  124PVA    H7121029   1.337   2.729   0.462  0.0933 -0.9854 -1.3246
  124PVA    H7221030   1.330   2.666   0.630 -0.2879  3.4804  1.2540
  124PVA    C3721031   1.141   2.710   0.523  0.4115 -0.4185  1.0906
  124PVA    H7321032   1.096   2.661   0.610  1.0114 -0.3396  1.4516
  124PVA    H7421033   1.091   2.660   0.440  1.0068 -4.7797  3.0628
  124PVA    C3821034   1.109   2.871   0.553  1.1657 -0.3376  0.2728
  124PVA    H7521035   1.198   2.902   0.609 -0.3738 -0.9196  3.2537
  124PVA    O1321036   1.010   2.880   0.644 -0.4457  0.3845  0.0878
  124PVA    H7621037   0.934   2.836   0.603 -1.1392  0.6432  1.0464
  124PVA    C3921038   1.060   2.964   0.424  0.0220  0.3045  0.0547
  124PVA    H7721039   0.954   2.939   0.413  0.9970 -3.9867 -1.7444
  124PVA    H7821040   1.103   2.925   0.331  1.1453 -1.9414  1.4175
  124PVA    C4021041   1.062   3.120   0.446  0.0887 -0.3938 -0.7625
  124PVA    H7921042   1.030   3.157   0.544 -0.2491 -0.5394 -0.8199
  124PVA    H8021043   1.168   3.149   0.434 -1.1768  4.0178 -3.6030
  124PVA    C4121044   0.988   3.211   0.335  1.4692  0.4023  0.2380
  124PVA    H8121045   1.007   3.175   0.233  3.2525  3.7208 -0.7376
  124PVA    O1421046   0.850   3.191   0.354  0.6596  0.8702 -0.1904
  124PVA    H8221047   0.828   3.152   0.440  2.8458  0.5981  0.2873
  124PVA    C4221048   1.007   3.367   0.346  0.1245  0.2332 -0.9673
  124PVA    H8321049   1.043   3.391   0.447  1.6344 -1.4757 -1.0596
  124PVA    H8421050   1.102   3.396   0.298  0.7210 -1.1629 -0.6541
  124PVA    C4321051   0.914   3.479   0.287 -0.3489 -0.2064  1.2152
  124PVA    H8521052   0.848   3.506   0.370  0.8863  0.5900  1.9709
  124PVA    H8621053   0.860   3.450   0.196 -2.8169  0.8919  2.2458
  124PVA    C4421054   0.980   3.626   0.264 -0.3703 -0.6384 -0.4736
  124PVA    H8721055   1.041   3.631   0.173 -0.3042  0.7664 -0.3814
  124PVA    O1521056   1.065   3.667   0.366  0.1079 -1.3339  0.6839
  124PVA    H8821057   1.012   3.717   0.432  1.0819 -0.2975  0.7160
  124PVA    C4521058   0.864   3.742   0.242 -0.9810  0.1113  0.2855
  124PVA    H8921059   0.826   3.756   0.344  0.2390 -5.1355  1.7680
  124PVA    H9021060   0.769   3.717   0.193 -1.6092  1.6022  0.6573
  124PVA    C4621061   0.929   3.875   0.177  0.6763  0.3044 -0.2446
  124PVA    H9121062   1.034   3.881   0.209 -0.2053  0.0656  3.0640
  124PVA    H9221063   0.925   3.849   0.071 -0.8514 -1.4907  0.1897
  124PVA    C4721064   0.865   4.015   0.204 -0.4920 -0.1996  0.8013
  124PVA    H9321065   0.853   4.036   0.311 -0.6115  1.3973  0.4962
  124PVA    O1621066   0.734   3.987   0.144 -0.8658  0.4958 -0.2883
  124PVA    H9421067   0.689   4.069   0.116  0.5677  1.2208 -0.6054
  124PVA    C4821068   0.941   4.119   0.122 -0.1028  0.2666  0.1961
  124PVA    H9521069   1.021   4.152   0.190 -0.0811 -0.2503  0.4286
  124PVA    H9621070   0.990   4.069   0.038 -0.1574 -1.5556  1.1766
  124PVA    C4921071   0.879   4.251   0.075  0.9998  1.2479 -0.5313
  124PVA    H9721072   0.872   4.308   0.168  1.9870 -2.3790  1.9977
  124PVA    H9821073   0.778   4.228   0.039 -0.3050  5.1899  0.0943
  124PVA    C5021074   0.948   4.335   8.063 -1.0179 -0.9215 -0.0670
  124PVA    H9921075   0.970   4.284   7.968 -0.4980  0.7594 -0.9075
  124PVA    O1721076   1.076   4.376   0.014 -0.2677 -0.8397 -0.8984
  124PVA   H10021077   1.087   4.339   0.103 -2.3532  1.2135  0.3395
  124PVA    C5121078   0.867   4.456   8.007 -1.5952 -0.7428 -0.2853
  124PVA   H10121079   0.767   4.422   7.978 -1.3871 -0.1985 -1.7696
  124PVA   H10221080   0.833   4.518   8.091 -2.2614 -0.1509 -0.9786
  125PVA     C121081   5.350   0.255   7.888  0.5459 -0.6096  0.4302
  125PVA     H121082   5.258   0.220   7.936 -1.7451  1.9911 -1.7347
  125PVA     H221083   5.326   0.361   7.899 -1.0095 -0.9420  0.4470
  125PVA     C221084   5.475   0.226   7.981  1.6740  0.3559  0.3239
  125PVA     H321085   5.556   0.174   7.927  1.4674  1.6162 -1.2380
  125PVA     O121086   5.417   0.142   8.079  0.6134  0.1402 -0.1935
  125PVA     H421087   5.416   0.052   8.043 -2.0303 -1.3698  3.0654
  125PVA     C321088   5.534   0.354   8.038  1.1370 -0.5709  0.6459
  125PVA     H521089   5.450   0.419   8.063  1.5881  0.5684 -0.6997
  125PVA     H621090   5.586   0.408   7.958 -0.0383 -0.6947 -0.2131
  125PVA     C421091   5.635   0.335   0.054  0.5428  0.0621 -0.7217
  125PVA     H721092   5.693   0.241   0.054 -0.3133 -0.5393  1.6259
  125PVA     H821093   5.586   0.329   0.152  0.2222 -0.0053 -0.8837
  125PVA     C521094   5.712   0.464   0.079 -0.4356  0.2803 -0.9050
  125PVA     H921095   5.645   0.542   0.041 -1.5564  0.1210  0.6318
  125PVA     O221096   5.841   0.454   0.019  0.1918 -0.0375 -1.3667
  125PVA    H1021097   5.870   0.361   0.019 -1.7892 -0.7290 -0.3169
  125PVA     C621098   5.737   0.495   0.232 -0.4016 -0.3054 -0.0562
  125PVA    H1121099   5.782   0.594   0.242 -0.0618 -0.2776 -1.6671
  125PVA    H1221100   5.636   0.494   0.274 -3.5056 -0.5810 -6.3964
  125PVA     C721101   5.819   0.395   0.322 -0.6586  0.6611 -0.0256
  125PVA    H1321102   5.914   0.377   0.271 -0.4611 -1.4117  0.9606
  125PVA    H1421103   5.782   0.293   0.304  0.0411 -0.1087  2.4403
  125PVA     C821104   5.800   0.418   0.482 -0.0919  0.5357  0.7273
  125PVA    H1521105   5.691   0.410   0.496  0.1222 -0.9516  1.8870
  125PVA     O321106   5.848   0.552   0.502  0.7278 -0.4379 -1.0136
  125PVA    H1621107   5.789   0.607   0.446  1.8492  0.5793 -1.2434
  125PVA     C921108   5.873   0.316   0.570  0.7298  0.1992 -0.0729
  125PVA    H1721109   5.828   0.218   0.555  1.6930 -0.4328  1.0013
  125PVA    H1821110   5.973   0.299   0.528 -1.3318  0.6158 -6.2296
  125PVA    C1021111   5.864   0.352   0.720  0.7254  0.9739 -0.1800
  125PVA    H1921112   5.758   0.376   0.732 -0.4606 -2.9535 -1.1895
  125PVA    H2021113   5.923   0.441   0.743 -0.2841  1.7997 -0.6648
  125PVA    C1121114   5.898   0.240   0.821 -0.0463 -0.6732  0.2722
  125PVA    H2121115   5.853   0.145   0.790 -1.7324  0.2656 -0.2897
  125PVA     O421116   6.041   0.228   0.819  0.2008 -0.3231 -0.2679
  125PVA    H2221117   6.076   0.317   0.837  2.0743 -1.1386  0.3431
  125PVA    C1221118   5.861   0.275   0.972 -0.2248  0.8238 -0.5012
  125PVA    H2321119   5.913   0.368   0.996  2.3587 -0.0499 -2.2760
  125PVA    H2421120   5.754   0.296   0.982 -1.1939 -3.6922  0.9414
  125PVA    C1321121   5.903   0.172   1.092  0.3107 -0.5954 -0.5004
  125PVA    H2521122   5.993   0.125   1.053 -0.9572 -3.2117 -0.4582
  125PVA    H2621123   5.839   0.087   1.118 -0.5627  0.6108  1.6509
  125PVA    C1421124   5.939   0.237   1.228  0.6130  1.0361  0.9224
  125PVA    H2721125   6.023   0.304   1.204  1.1269  0.8792  2.1952
  125PVA     O521126   5.818   0.294   1.270 -0.5662 -0.1138 -0.8934
  125PVA    H2821127   5.776   0.350   1.203 -2.7504  0.9346  1.1836
  125PVA    C1521128   5.999   0.153   1.340 -0.2910 -0.8240  0.3555
  125PVA    H2921129   6.107   0.134   1.331 -0.0334 -0.0410  1.5812
  125PVA    H3021130   5.973   0.047   1.345  1.6884 -1.2780  2.2680
  125PVA    C1621131   5.957   0.203   1.482 -0.5469  1.8665 -0.0878
  125PVA    H3121132   5.923   0.307   1.472 -1.5873  1.3689 -3.0989
  125PVA    H3221133   5.863   0.150   1.504 -0.4861  0.4022 -2.8722
  125PVA    C1721134   6.046   0.193   1.605 -0.4262 -0.2538 -0.4784
  125PVA    H3321135   5.988   0.136   1.678 -2.2198 -1.3601 -2.6327
  125PVA     O621136   6.147   0.094   1.583 -0.0551  0.8643 -0.3438
  125PVA    H3421137   6.147   0.031   1.657  0.3961 -1.7633 -2.4399
  125PVA    C1821138   6.091   0.320   1.674  0.4233  0.2459 -0.3956
  125PVA    H3521139   6.098   0.406   1.607 -2.7387 -0.6599 -2.0570
  125PVA    H3621140   6.011   0.342   1.747  2.4346  0.0041  2.0415
  125PVA    C1921141   6.243   0.334   1.725 -0.6198  0.1919 -0.3824
  125PVA    H3721142   6.221   0.311   1.830 -1.9596  2.4877 -0.0908
  125PVA    H3821143   6.303   0.252   1.684  2.3123  2.6676 -1.4240
  125PVA    C2021144   6.329   0.467   1.711 -0.8266  0.2617 -0.3624
  125PVA    H3921145   6.266   0.557   1.709 -1.1441  0.0549 -2.9419
  125PVA     O721146   6.388   0.447   1.585  0.2502 -0.0563  0.0240
  125PVA    H4021147   6.330   0.386   1.537  1.3767  0.1716 -1.7198
  125PVA    C2121148   6.447   0.501   1.816  0.4698 -0.9844 -0.8003
  125PVA    H4121149   6.521   0.421   1.831  1.6121 -0.1848 -1.9610
  125PVA    H4221150   6.393   0.529   1.907  2.4533  0.6425 -0.0348
  125PVA    C2221151   6.536   0.616   1.767 -0.3158 -0.4764 -0.0929
  125PVA    H4321152   6.615   0.571   1.705  0.9411 -0.2521  1.2734
  125PVA    H4421153   6.488   0.678   1.691 -8.2754 -3.2136  1.7309
  125PVA    C2321154   6.603   0.706   1.875  0.9822  0.1388 -0.5109
  125PVA    H4521155   6.536   0.781   1.919 -1.2285 -2.1061  0.1567
  125PVA     O821156   6.643   0.627   1.980  0.1270 -0.9830  0.6918
  125PVA    H4621157   6.702   0.693   2.020  0.5990 -0.5566 -0.6574
  125PVA    C2421158   6.724   0.781   1.827 -0.4268 -1.2480  0.7855
  125PVA    H4721159   6.762   0.729   1.738 -0.1102  0.7938 -0.3382
  125PVA    H4821160   6.681   0.872   1.784  2.2612  0.6308  1.7333
  125PVA    C2521161   6.838   0.820   1.921  0.0995 -0.0987  0.1125
  125PVA    H4921162   6.896   0.897   1.870 -2.6537  0.4012 -2.4945
  125PVA    H5021163   6.901   0.737   1.956  0.4239 -0.0374 -0.3133
  125PVA    C2621164   6.786   0.901   2.049  0.5615  0.3275  1.3314
  125PVA    H5121165   6.690   0.954   2.052 -1.4319 -3.0383  1.3834
  125PVA     O921166   6.787   0.798   2.147  1.5886 -0.5970 -0.1466
  125PVA    H5221167   6.747   0.837   2.227  0.7144  0.9635 -1.2836
  125PVA    C2721168   6.890   1.015   2.069 -0.3346 -1.1495 -0.1884
  125PVA    H5321169   6.991   0.975   2.057  0.2418  0.6474 -2.0431
  125PVA    H5421170   6.888   1.084   1.984 -3.7278  0.4269  0.9906
  125PVA    C2821171   6.872   1.091   2.210 -0.7586  0.3984 -0.2188
  125PVA    H5521172   6.765   1.105   2.233 -0.4321 -0.8766  2.4061
  125PVA    H5621173   6.903   1.037   2.301 -1.6422 -0.0882 -0.1968
  125PVA    C2921174   6.939   1.235   2.229 -0.0221  1.3072  1.0286
  125PVA    H5721175   6.909   1.297   2.143  0.4057  1.3661  0.9187
  125PVA    O1021176   7.079   1.194   2.204  0.8721 -0.9408 -0.4737
  125PVA    H5821177   7.092   1.100   2.179 -1.9156 -2.4935  2.9353
  125PVA    C3021178   6.905   1.300   2.356  1.2954  1.2420 -0.8773
  125PVA    H5921179   6.926   1.407   2.346  1.1491  1.1985 -1.6855
  125PVA    H6021180   6.798   1.276   2.357  1.4054  0.7125  0.2258
  125PVA    C3121181   6.957   1.242   2.489 -0.1309 -0.8090 -0.9280
  125PVA    H6121182   6.891   1.165   2.529 -0.0358  0.0084  0.9452
  125PVA    H6221183   7.060   1.205   2.481  1.0075  1.5461  1.2439
  125PVA    C3221184   6.985   1.349   2.596  1.1121  0.5094 -0.4400
  125PVA    H6321185   6.913   1.432   2.590 -0.0004 -0.2798  1.3485
  125PVA    O1121186   7.115   1.402   2.575  0.2002  0.7804 -0.4897
  125PVA    H6421187   7.120   1.426   2.481 -1.0030  2.3198 -0.1836
  125PVA    C3321188   6.983   1.282   2.738 -1.0399 -0.4077 -0.5343
  125PVA    H6521189   7.036   1.186   2.744  1.2257  0.8650  1.8684
  125PVA    H6621190   6.883   1.268   2.779  0.0606  0.3343  2.6673
  125PVA    C3421191   7.056   1.368   2.855 -0.7207 -0.3948 -0.2778
  125PVA    H6721192   7.160   1.389   2.826 -1.0368  2.9761  0.5600
  125PVA    H6821193   7.007   1.466   2.863  1.5692  1.2361 -3.5747
  125PVA    C3521194   7.064   1.297   2.991 -0.4519  0.0492 -1.2699
  125PVA    H6921195   6.972   1.240   3.004 -2.1082  2.2283 -2.7262
  125PVA    O1221196   7.168   1.206   2.993 -0.2854  1.0654 -0.3448
  125PVA    H7021197   7.213   1.217   2.908  0.5436 -0.8371 -0.2003
  125PVA    C3621198   7.086   1.407   3.091 -0.0796  0.0319  0.3432
  125PVA    H7121199   7.174   1.463   3.058 -0.5320 -0.3355 -1.6384
  125PVA    H7221200   7.010   1.484   3.072  0.8101  1.2011  1.3871
  125PVA    C3721201   7.073   1.381   3.248  0.0678  0.2571  0.1784
  125PVA    H7321202   6.991   1.315   3.280 -1.2978  2.3761  1.3254
  125PVA    H7421203   7.041   1.480   3.285 -0.6414  1.1949 -2.6811
  125PVA    C3821204   7.210   1.334   3.297 -0.7716  1.0675 -0.4629
  125PVA    H7521205   7.288   1.393   3.248 -1.3228  0.3061 -2.3503
  125PVA    O1321206   7.213   1.192   3.259  0.6018 -1.1180 -0.3017
  125PVA    H7621207   7.207   1.179   3.163  2.1923 -2.4924 -0.2497
  125PVA    C3921208   7.236   1.344   3.449 -0.2317 -0.1990  0.8951
  125PVA    H7721209   7.229   1.446   3.490 -1.4346 -0.5967  1.7203
  125PVA    H7821210   7.160   1.277   3.489 -0.2234 -1.1185 -0.5581
  125PVA    C4021211   7.372   1.277   3.492 -1.1366 -0.5282  0.3989
  125PVA    H7921212   7.462   1.301   3.435  0.3797 -1.9149  2.0912
  125PVA    H8021213   7.411   1.328   3.581  1.2826 -1.8511  0.1631
  125PVA    C4121214   7.367   1.126   3.533  0.7426  0.9587 -0.5481
  125PVA    H8121215   7.295   1.115   3.615  1.7302 -1.0582  0.1189
  125PVA    O1421216   7.334   1.051   3.423 -0.3342 -0.3113  0.7793
  125PVA    H8221217   7.269   1.093   3.364 -0.3423 -1.4486 -0.0684
  125PVA    C4221218   7.509   1.085   3.577 -0.1963  0.9811 -0.6103
  125PVA    H8321219   7.584   1.083   3.497  1.9937  2.2472  1.2999
  125PVA    H8421220   7.543   1.150   3.659 -1.5164  0.8801  0.0424
  125PVA    C4321221   7.521   0.938   3.641  0.1631  0.8892 -1.2014
  125PVA    H8521222   7.510   0.866   3.559 -0.6731  0.8747 -1.0789
  125PVA    H8621223   7.424   0.922   3.690  0.1218  1.3611 -1.1220
  125PVA    C4421224   7.653   0.894   3.714 -0.8810  0.4552  0.3867
  125PVA    H8721225   7.723   0.974   3.689 -0.3401  0.0176  0.4926
  125PVA    O1521226   7.683   0.766   3.678 -0.0356 -0.5388 -0.2703
  125PVA    H8821227   0.008   0.769   3.641 -0.5733 -3.8176 -2.2631
  125PVA    C4521228   7.659   0.891   3.864 -0.6411 -0.1502  0.1062
  125PVA    H8921229   7.595   0.973   3.899  0.2393  0.8697 -0.6124
  125PVA    H9021230   7.620   0.804   3.919  2.8778  0.2304  3.6391
  125PVA    C4621231   0.038   0.897   3.923  0.7845 -0.3957 -0.1185
  125PVA    H9121232   0.098   0.970   3.868 -0.6837  0.1912 -0.9931
  125PVA    H9221233   0.081   0.796   3.923  1.4622 -0.1103 -0.1133
  125PVA    C4721234   0.049   0.925   4.083 -0.1365 -0.6784 -0.3178
  125PVA    H9321235   0.148   0.914   4.127 -1.6490  0.4104  3.8415
  125PVA    O1621236   0.027   1.060   4.115 -0.6176  0.2694  0.2161
  125PVA    H9421237   7.699   1.050   4.141 -1.0527 -4.5173 -2.1010
  125PVA    C4821238   7.732   0.821   4.167  1.1535 -0.9361 -0.0371
  125PVA    H9521239   7.628   0.833   4.133  1.4226  1.0861 -0.2870
  125PVA    H9621240   7.762   0.720   4.139 -2.7272 -1.9734 -1.0168
  125PVA    C4921241   7.752   0.851   4.323 -0.0659 -0.1804 -0.2105
  125PVA    H9721242   7.692   0.939   4.353 -0.4954 -0.5765  0.1070
  125PVA    H9821243   0.094   0.871   4.331  0.0225  1.9004 -4.1725
  125PVA    C5021244   7.714   0.733   4.421 -0.0862 -0.4544  0.0999
  125PVA    H9921245   7.689   0.776   4.518  7.1725  2.0889  1.4481
  125PVA    O1721246   7.601   0.672   4.354 -0.1338  0.5707 -0.3954
  125PVA   H10021247   7.625   0.579   4.371  3.0793  1.4163  0.3629
  125PVA    C5121248   0.065   0.630   4.458  0.1299 -0.5986  0.0722
  125PVA   H10121249   0.104   0.577   4.371 -1.2692 -1.4268 -0.0781
  125PVA   H10221250   0.147   0.689   4.500  1.6231 -0.6663 -2.5350
  126PVA     C121251   0.580   4.805   7.035 -0.7117 -0.9522 -0.4711
  126PVA     H121252   0.521   4.886   6.991 -0.4408  2.2624  4.3586
  126PVA     H221253   0.630   4.851   7.120 -1.5313  0.8943 -0.9422
  126PVA     C221254   0.481   4.709   7.075  0.6985  1.3350 -0.3171
  126PVA     H321255   0.527   4.631   7.136  2.0709  1.6266 -0.9396
  126PVA     O121256   0.425   4.650   6.958  0.6283  0.3610  0.0265
  126PVA     H421257   0.393   4.560   6.974  3.1379 -0.6776 -0.2877
  126PVA     C321258   0.367   4.790   7.138 -0.2798 -0.6148  0.6188
  126PVA     H521259   0.329   4.852   7.056  2.9423 -2.5976 -2.7513
  126PVA     H621260   0.415   4.844   7.220  0.3813 -0.3444  0.0734
  126PVA     C421261   0.253   4.696   7.182 -0.1678  0.7912 -0.0765
  126PVA     H721262   0.199   4.658   7.095 -0.5646  1.1457  0.0082
  126PVA     H821263   0.268   4.611   7.250 -0.5440 -1.8137 -3.0124
  126PVA     C521264   0.144   4.772   7.271 -0.9942 -0.4196  0.0477
  126PVA     H921265   0.050   4.714   7.262 -0.4827 -1.1878 -0.5435
  126PVA     O221266   0.203   4.796   7.399 -0.3029  0.2935 -0.2778
  126PVA    H1021267   0.232   4.706   7.419  0.0114 -0.2293 -2.7037
  126PVA     C621268   0.093   4.894   7.195 -0.0093  0.6397  0.5441
  126PVA    H1121269   0.153   4.983   7.214  2.0574 -0.4628 -0.5420
  126PVA    H1221270   0.103   4.864   7.090  0.3415  1.8078  0.2260
  126PVA     C721271   7.720   4.942   7.230  0.0607  0.2649  0.3391
  126PVA    H1321272   7.710   4.954   7.339  0.0205 -3.8414  0.9500
  126PVA    H1421273   7.657   4.858   7.196  0.3014  1.7787 -4.6522
  126PVA     C821274   7.649   5.065   7.167  0.8354 -0.5663  0.2191
  126PVA    H1521275   7.549   5.060   7.212 -0.4379  2.6520 -1.9167
  126PVA     O321276   7.626   5.034   7.033  0.1036 -0.4686 -0.1656
  126PVA    H1621277   7.709   5.032   6.982  4.1768 -0.6298  5.4959
  126PVA     C921278   7.719   5.191   7.202 -0.1181 -0.1359 -0.2156
  126PVA    H1721279   0.062   5.175   7.209  0.4770  2.9272 -0.8404
  126PVA    H1821280   7.682   5.222   7.301  3.2619 -4.5605  2.8454
  126PVA    C1021281   7.701   5.315   7.115 -0.2249 -0.1376 -1.1805
  126PVA    H1921282   7.765   5.308   7.027 -0.1667  2.6610 -1.4539
  126PVA    H2021283   7.601   5.329   7.072 -1.2908  1.3683  1.5357
  126PVA    C1121284   7.754   5.441   7.197 -0.0413  0.3847  0.8085
  126PVA    H2121285   7.693   5.445   7.288 -2.0769  0.0613 -0.4963
  126PVA     O421286   0.120   5.413   7.243 -0.1497  0.6705 -0.5399
  126PVA    H2221287   0.136   5.470   7.321 -0.2390  0.2599 -0.2185
  126PVA    C1221288   7.747   5.564   7.100 -0.3048  0.7609 -1.2513
  126PVA    H2321289   7.647   5.572   7.055  0.5695 -1.7077 -3.9943
  126PVA    H2421290   0.049   5.543   7.016  0.2322  4.3305 -1.8732
  126PVA    C1321291   0.045   5.690   7.173  0.1005  0.5545 -1.0805
  126PVA    H2521292   0.146   5.664   7.207 -0.8697 -2.4035 -0.1050
  126PVA    H2621293   7.763   5.702   7.271  1.1933 -7.5703  1.2030
  126PVA    C1421294   0.062   5.818   7.090 -0.8618 -1.4106  0.0796
  126PVA    H2721295   0.149   5.800   7.026  0.7634  1.3378  1.3272
  126PVA     O521296   7.718   5.845   7.003  0.1328 -0.6533 -0.7684
  126PVA    H2821297   7.659   5.768   7.003 -0.5241 -0.2259  1.4228
  126PVA    C1521298   0.093   5.947   7.168 -0.0074  0.4231 -0.8539
  126PVA    H2921299   0.197   5.946   7.202  0.1674  2.4627 -1.2000
  126PVA    H3021300   0.035   5.954   7.261 -2.0744  0.2019 -2.0553
  126PVA    C1621301   0.073   6.078   7.086 -0.3068 -0.2042 -0.1566
  126PVA    H3121302   0.081   6.060   6.978  2.3077 -3.1385  0.3959
  126PVA    H3221303   7.739   6.116   7.113  0.0016  0.5822 -0.1019
  126PVA    C1721304   0.162   6.186   7.142  0.3902 -0.2775  0.4810
  126PVA    H3321305   0.159   6.186   7.251 -2.2465 -0.0353  0.4845
  126PVA     O621306   0.111   6.308   7.109  0.1443  0.8232 -0.1166
  126PVA    H3421307   0.037   6.287   7.049  1.9427 -3.5324 -1.2338
  126PVA    C1821308   0.299   6.185   7.075 -0.1070 -0.0183 -0.3867
  126PVA    H3521309   0.299   6.188   6.966 -1.0467 -0.7836 -0.4192
  126PVA    H3621310   0.342   6.085   7.083  0.5553  0.3035  0.2134
  126PVA    C1921311   0.385   6.292   7.145 -0.6718  0.2700 -0.9368
  126PVA    H3721312   0.363   6.312   7.250 -3.2044  2.2372 -1.7399
  126PVA    H3821313   0.376   6.393   7.104 -2.0685  1.5590  2.2124
  126PVA    C2021314   0.535   6.263   7.137  0.7593  0.6546  0.8390
  126PVA    H3921315   0.550   6.244   7.030 -2.5198 -0.7680  0.5045
  126PVA     O721316   0.561   6.135   7.205 -0.6480 -0.0808 -0.1383
  126PVA    H4021317   0.496   6.064   7.193  0.3872 -1.2441  0.9606
  126PVA    C2121318   0.614   6.356   7.230  0.4255 -0.3433 -0.9047
  126PVA    H4121319   0.565   6.364   7.328  0.0844  2.9062 -1.2160
  126PVA    H4221320   0.596   6.461   7.202  0.5336 -0.3616 -1.0449
  126PVA    C2221321   0.756   6.320   7.233 -0.8571 -1.3286 -0.1329
  126PVA    H4321322   0.782   6.243   7.307  3.2128  0.3872  0.4883
  126PVA    H4421323   0.769   6.280   7.132 -0.9220  1.9215 -1.5487
  126PVA    C2321324   0.842   6.445   7.227 -0.2015  0.2705  0.0643
  126PVA    H4521325   0.796   6.540   7.199  1.9204  2.0984  2.2628
  126PVA     O821326   0.900   6.474   7.344 -0.5390  0.2346 -1.0414
  126PVA    H4621327   0.856   6.402   7.392  0.7604 -0.2948 -0.5956
  126PVA    C2421328   0.965   6.413   7.130 -0.2485  0.3457 -1.1660
  126PVA    H4721329   1.039   6.341   7.165 -0.2885  1.3927  1.3291
  126PVA    H4821330   0.917   6.381   7.037 -3.7664 -1.0505  0.9451
  126PVA    C2521331   1.062   6.544   7.099  0.9546  0.0296 -0.7956
  126PVA    H4921332   1.138   6.568   7.174 -0.5575  1.9236  0.2195
  126PVA    H5021333   0.972   6.607   7.095 -2.7735 -4.6251  0.1778
  126PVA    C2621334   1.136   6.542   6.965 -0.1654  0.2228 -0.1501
  126PVA    H5121335   1.048   6.549   6.900  0.8624  0.6739 -1.5507
  126PVA     O921336   1.218   6.433   6.954  0.5754 -0.0034  0.0628
  126PVA    H5221337   1.283   6.454   6.885  0.9602  1.8262  0.9122
  126PVA    C2721338   1.225   6.654   6.919 -0.7180  1.0687 -0.4239
  126PVA    H5321339   1.177   6.752   6.932 -3.1466  0.1026 -1.4203
  126PVA    H5421340   1.326   6.652   6.960 -1.1203 -4.4506  1.0669
  126PVA    C2821341   1.260   6.640   6.765  0.9560  0.1037  1.4549
  126PVA    H5521342   1.161   6.655   6.721  0.5727 -0.5730  2.0713
  126PVA    H5621343   1.288   6.538   6.738  1.0196 -0.1911  2.6006
  126PVA    C2921344   1.363   6.746   6.716 -0.1439 -0.2627 -0.1103
  126PVA    H5721345   1.379   6.825   6.791  1.4068  1.2751 -1.9545
  126PVA    O1021346   1.494   6.680   6.708 -0.3721  0.0165 -0.6471
  126PVA    H5821347   1.549   6.697   6.786 -1.7901 -3.2617  1.2482
  126PVA    C3021348   1.318   6.807   6.579  0.0282  0.7051 -0.6337
  126PVA    H5921349   1.291   6.732   6.504 -1.2447  0.0258  0.4513
  126PVA    H6021350   1.226   6.865   6.596 -1.1297 -0.4323 -2.6090
  126PVA    C3121351   1.425   6.898   6.519 -0.1138 -0.2471 -0.8605
  126PVA    H6121352   1.495   6.826   6.475 -0.5623 -0.3800 -1.3743
  126PVA    H6221353   1.481   6.946   6.601 -0.9841  0.0022 -0.4005
  126PVA    C3221354   1.396   6.999   6.406  1.1181 -0.3431 -0.0899
  126PVA    H6321355   1.496   7.036   6.382  1.0379  0.5784  0.9577
  126PVA    O1121356   1.325   7.116   6.464 -0.2455 -0.1764 -0.4070
  126PVA    H6421357   1.245   7.070   6.495  0.0585 -0.0548  0.5904
  126PVA    C3321358   1.325   6.931   6.276 -0.4173 -0.6489  0.0923
  126PVA    H6521359   1.257   6.846   6.285  1.7973 -2.6887 -1.0532
  126PVA    H6621360   1.413   6.906   6.215  1.7313  1.7494  2.0039
  126PVA    C3421361   1.235   7.031   6.203 -0.6260 -0.0417 -0.4718
  126PVA    H6721362   1.173   7.071   6.284  1.0724 -3.0332  2.6146
  126PVA    H6821363   1.293   7.113   6.158  3.2043 -2.5611 -0.6142
  126PVA    C3521364   1.142   6.975   6.096  0.2783  0.1762  0.2645
  126PVA    H6921365   1.066   6.905   6.132  0.0574 -0.8244 -1.9562
  126PVA    O1221366   1.212   6.889   6.018 -0.4929 -0.1704 -0.8187
  126PVA    H7021367   1.262   6.934   5.947 -0.1111 -0.2627 -0.6126
  126PVA    C3621368   1.074   7.088   6.008 -0.3956 -0.7615 -0.3433
  126PVA    H7121369   1.010   7.159   6.062 -0.8658 -1.2432 -0.2636
  126PVA    H7221370   1.147   7.159   5.968 -3.5254  2.3377 -1.0070
  126PVA    C3721371   0.981   7.029   5.903  0.5969  0.2546 -0.3139
  126PVA    H7321372   0.892   6.991   5.955  0.2404 -1.3944 -2.0473
  126PVA    H7421373   1.042   6.960   5.844  1.0650  2.0708 -2.0598
  126PVA    C3821374   0.924   7.142   5.815 -0.1658 -0.3049 -1.2160
  126PVA    H7521375   0.874   7.218   5.876  1.7201 -0.9303  1.2559
  126PVA    O1321376   1.028   7.203   5.733  0.3871 -0.2928 -0.4479
  126PVA    H7621377   1.078   7.135   5.683  0.9454 -1.0040  1.0132
  126PVA    C3921378   0.820   7.069   5.719 -0.9007  0.7207  0.3230
  126PVA    H7721379   0.884   7.000   5.662  0.2590  4.8995 -4.1955
  126PVA    H7821380   0.742   7.017   5.775 -1.8868 -1.0557 -2.4906
  126PVA    C4021381   0.759   7.166   5.611  0.3122 -1.7301 -0.0466
  126PVA    H7921382   0.719   7.128   5.516 -0.3799  0.4775 -0.7018
  126PVA    H8021383   0.833   7.241   5.579 -0.6935  0.7785  2.9381
  126PVA    C4121384   0.639   7.248   5.680 -0.8727  0.1222  0.2432
  126PVA    H8121385   0.675   7.297   5.771  0.6976  0.4902 -0.5373
  126PVA    O1421386   0.554   7.141   5.695  0.7748 -0.5572  1.2975
  126PVA    H8221387   0.561   7.109   5.787 -1.6415 -0.1020  1.7247
  126PVA    C4221388   0.599   7.354   5.576  0.9133  0.9900  0.7169
  126PVA    H8321389   0.689   7.417   5.575 -0.0892  2.4776 -0.1815
  126PVA    H8421390   0.613   7.317   5.473 -0.6260  0.8867  0.5325
  126PVA    C4321391   0.458   7.414   5.604  0.7259  0.1040  0.7442
  126PVA    H8521392   0.457   7.444   5.709  0.0259  0.2864  0.6843
  126PVA    H8621393   0.386   7.333   5.585  0.7538 -0.4160  2.6528
  126PVA    C4421394   0.391   7.527   5.520  0.7580  0.0378 -0.3044
  126PVA    H8721395   0.300   7.554   5.575 -1.2129 -3.9242 -1.2119
  126PVA    O1521396   0.478   7.638   5.522 -0.3557  0.9543  0.4451
  126PVA    H8821397   0.548   7.620   5.457 -2.0965  2.6955 -2.1412
  126PVA    C4521398   0.344   7.484   5.373  0.3040 -0.4528 -0.0103
  126PVA    H8921399   0.427   7.448   5.311 -1.4796 -2.6052 -1.3302
  126PVA    H9021400   0.283   7.393   5.364 -3.6217  2.0059 -0.1770
  126PVA    C4621401   0.266   7.602   5.311 -0.3778 -0.2280  1.2627
  126PVA    H9121402   0.167   7.630   5.351 -1.4016 -0.9613 -0.6066
  126PVA    H9221403   0.346   7.677   5.308  0.5756 -1.1135 -3.4245
  126PVA    C4721404   0.253   7.590   5.158  1.1194 -0.5424  0.5376
  126PVA    H9321405   0.357   7.610   5.127  0.7347  0.3822 -0.2185
  126PVA    O1621406   0.207   7.457   5.133  0.3188 -1.0070  0.0035
  126PVA    H9421407   0.164   7.423   5.213 -0.6795  2.8957  1.3517
  126PVA    C4821408   0.171   0.011   5.092 -0.6617  1.1123  1.0227
  126PVA    H9521409   0.084   7.646   5.048  0.4071 -2.8521  2.9387
  126PVA    H9621410   0.137   0.090   5.160 -0.0332  0.7616  1.7571
  126PVA    C4921411   0.241   0.083   4.986 -0.1136 -0.8569 -0.0493
  126PVA    H9721412   0.307   0.016   4.930  0.7601 -0.3099  0.3089
  126PVA    H9821413   0.303   0.151   5.046 -0.6285 -3.1343  3.3632
  126PVA    C5021414   0.139   0.161   4.897 -0.9365  0.1160 -0.2414
  126PVA    H9921415   0.119   0.088   4.818 -4.2620 -1.6151  1.9622
  126PVA    O1721416   0.011   0.188   4.955  0.7192 -0.3909  0.2580
  126PVA   H10021417   7.746   0.266   4.905  1.4829 -1.3913 -1.8678
  126PVA    C5121418   0.183   0.290   4.833  0.7529 -0.2045  0.2305
  126PVA   H10121419   0.288   0.296   4.800  1.1429 -0.0314  1.4718
  126PVA   H10221420   0.160   0.370   4.904 -3.7323 -1.4737  0.5414
  127PVA     C121421   0.932   5.101   6.954  0.2139  1.5610  1.3720
  127PVA     H121422   1.013   5.061   6.891 -2.2996  1.6828 -2.2104
  127PVA     H221423   0.957   5.133   7.056 -1.1980  0.4779  2.1042
  127PVA     C221424   0.880   5.219   6.865  0.9464  0.8490  0.5262
  127PVA     H321425   0.783   5.241   6.912 -1.9680 -0.7830 -4.0046
  127PVA     O121426   0.846   5.157   6.738  0.1003  0.3878  0.0166
  127PVA     H421427   0.797   5.076   6.759 -3.1220  2.1969  0.0513
  127PVA     C321428   0.962   5.347   6.850 -0.0730 -0.5881  0.4636
  127PVA     H521429   1.057   5.307   6.812  0.4790 -0.0376  1.2479
  127PVA     H621430   0.966   5.391   6.950 -4.6741  1.7970 -0.0740
  127PVA     C421431   0.911   5.462   6.754  0.0289 -0.5967 -0.2424
  127PVA     H721432   0.846   5.420   6.675 -0.1768 -2.3317  0.7968
  127PVA     H821433   0.852   5.534   6.812 -1.0752 -0.5200 -1.3916
  127PVA     C521434   1.040   5.541   6.695  0.2112 -0.1957  0.0202
  127PVA     H921435   1.084   5.472   6.621  0.2955 -1.7239  1.4318
  127PVA     O221436   1.138   5.571   6.793  0.9573 -0.7929  0.0539
  127PVA    H1021437   1.189   5.644   6.754 -1.3697  1.9383  1.7168
  127PVA     C621438   0.990   5.681   6.632  0.0297 -0.7837 -1.0303
  127PVA    H1121439   0.906   5.670   6.564  1.7997  1.0025 -3.7224
  127PVA    H1221440   0.947   5.746   6.710  1.5601 -2.0693  0.9883
  127PVA     C721441   1.090   5.779   6.553 -0.0471 -0.0136 -0.5225
  127PVA    H1321442   1.096   5.751   6.447  0.0688 -3.3956  0.2702
  127PVA    H1421443   1.192   5.764   6.591 -1.6887 -3.4843  3.2849
  127PVA     C821444   1.063   5.929   6.545 -0.7335  0.3982  0.2741
  127PVA    H1521445   1.060   5.967   6.648  3.1936  0.7948  0.3870
  127PVA     O321446   0.951   5.943   6.467 -0.0687  0.1877 -0.2425
  127PVA    H1621447   0.959   6.037   6.445 -1.4927 -0.0062 -1.7019
  127PVA     C921448   1.180   6.012   6.467  1.2166 -0.6536  0.5449
  127PVA    H1721449   1.268   5.947   6.452  1.5201 -0.8044  2.6117
  127PVA    H1821450   1.134   6.025   6.369 -1.8152 -2.2646  1.6018
  127PVA    C1021451   1.235   6.155   6.503  0.3041  0.7408 -0.0840
  127PVA    H1921452   1.165   6.211   6.566  2.6832  2.1614  1.4382
  127PVA    H2021453   1.329   6.144   6.558 -0.1265  5.7963  2.1925
  127PVA    C1121454   1.278   6.262   6.381 -1.2258 -0.0067 -0.9616
  127PVA    H2121455   1.351   6.209   6.320  1.7403  0.3500  1.9503
  127PVA     O421456   1.158   6.300   6.322  0.8427  0.5170  0.0775
  127PVA    H2221457   1.102   6.241   6.376  2.1936 -0.2667  0.7007
  127PVA    C1221458   1.361   6.392   6.414 -0.3442  0.1785  0.4073
  127PVA    H2321459   1.298   6.455   6.478 -0.6118  0.0878  0.2309
  127PVA    H2421460   1.453   6.378   6.473  1.4847  4.5020 -1.0177
  127PVA    C1321461   1.416   6.470   6.277 -0.5173  0.0096  0.3135
  127PVA    H2521462   1.482   6.400   6.223 -0.3919 -1.4148  2.1991
  127PVA    H2621463   1.331   6.497   6.215 -0.4118  0.0258  0.1754
  127PVA    C1421464   1.499   6.610   6.300 -0.7678 -0.6862  0.1070
  127PVA    H2721465   1.420   6.668   6.351 -1.9377 -1.3024 -0.9629
  127PVA     O521466   1.597   6.572   6.390  0.2036 -0.1297  0.3278
  127PVA    H2821467   1.585   6.648   6.450 -0.3836  0.1600 -0.1516
  127PVA    C1521468   1.560   6.680   6.167 -0.8680 -0.3671 -0.3893
  127PVA    H2921469   1.465   6.717   6.128 -3.4328 -2.1224  3.5169
  127PVA    H3021470   1.601   6.615   6.089  1.2854 -0.2125  0.5338
  127PVA    C1621471   1.673   6.790   6.184 -0.3412 -0.5975 -0.2986
  127PVA    H3121472   1.669   6.850   6.275 -0.1921  0.5147 -1.0084
  127PVA    H3221473   1.765   6.731   6.172 -0.8191 -0.9917 -2.5843
  127PVA    C1721474   1.692   6.880   6.056  0.5550  0.3565 -0.7001
  127PVA    H3321475   1.612   6.954   6.065  1.4086  1.2646 -0.4804
  127PVA     O621476   1.661   6.797   5.941 -0.2705 -0.0704 -0.4263
  127PVA    H3421477   1.746   6.750   5.934 -0.6977 -0.6488 -2.7010
  127PVA    C1821478   1.839   6.943   6.050  0.3841 -0.1896 -0.1885
  127PVA    H3521479   1.868   6.943   6.156 -0.4822 -0.9240  0.0564
  127PVA    H3621480   1.883   6.863   5.991 -2.4230 -0.8215 -1.6010
  127PVA    C1921481   1.847   7.086   5.980 -0.1312 -0.0758 -0.3954
  127PVA    H3721482   1.807   7.173   6.033  3.6955  2.8514 -1.8439
  127PVA    H3821483   1.787   7.066   5.890  1.5853 -2.1259 -1.1900
  127PVA    C2021484   1.990   7.144   5.948 -0.3829  0.4289  0.0592
  127PVA    H3921485   2.031   7.077   5.871  1.7155  0.2353  1.2773
  127PVA     O721486   2.069   7.125   6.063  0.3081 -0.1390  0.2394
  127PVA    H4021487   2.116   7.042   6.044  2.2437  1.2734 -1.6000
  127PVA    C2121488   2.008   7.294   5.891 -0.7376  1.6560 -0.2772
  127PVA    H4121489   1.995   7.364   5.975 -0.7839 -1.0768  2.1784
  127PVA    H4221490   1.944   7.300   5.803 -0.2899  0.8260 -0.6659
  127PVA    C2221491   2.141   7.321   5.805  1.2370  0.3077 -0.6358
  127PVA    H4321492   2.230   7.282   5.855  1.7022  1.0410 -0.8771
  127PVA    H4421493   2.131   7.264   5.712  0.7801 -0.7093  0.0197
  127PVA    C2321494   2.198   7.471   5.757 -0.5159  0.2171  0.7185
  127PVA    H4521495   2.118   7.507   5.692 -0.3145  1.4489  1.1212
  127PVA     O821496   2.198   7.557   5.870 -0.2591  0.5692  0.0239
  127PVA    H4621497   2.102   7.558   5.886 -0.5517 -2.1967 -1.1022
  127PVA    C2421498   2.327   7.470   5.680  0.3747  0.1869 -1.1209
  127PVA    H4721499   2.398   7.410   5.738 -2.6769 -1.6484  0.9738
  127PVA    H4821500   2.315   7.398   5.598  4.3522 -2.0685  0.0031
  127PVA    C2521501   2.390   7.603   5.613 -0.1052 -0.4965 -0.0257
  127PVA    H4921502   2.412   7.661   5.704 -1.8177 -0.9673  0.7195
  127PVA    H5021503   2.307   7.661   5.570 -0.5474  1.9223  3.6326
  127PVA    C2621504   2.511   7.584   5.511 -0.3519 -0.4774 -0.9526
  127PVA    H5121505   2.599   7.548   5.565 -0.5669 -4.4226 -2.9014
  127PVA     O921506   2.474   7.481   5.427  0.2977 -0.2320  0.8831
  127PVA    H5221507   2.516   7.415   5.485  0.9460  3.2583  4.8698
  127PVA    C2721508   2.548   0.028   5.427 -0.8633  0.7542  0.4480
  127PVA    H5321509   2.597   0.093   5.500  1.5138 -0.4260 -0.0067
  127PVA    H5421510   2.464   0.084   5.385 -0.7977  0.0296 -0.6845
  127PVA    C2821511   2.630   7.680   5.302 -0.8317  0.3466 -0.7769
  127PVA    H5521512   2.705   7.605   5.329 -1.5997  0.8236  3.3441
  127PVA    H5621513   2.559   7.640   5.228 -1.1544  0.8973 -0.7742
  127PVA    C2921514   2.722   0.108   5.222  1.1121  0.6055  1.2480
  127PVA    H5721515   2.669   0.203   5.226 -2.8788 -1.3914  1.2542
  127PVA    O1021516   2.838   0.128   5.291  0.3583  0.1445 -0.1457
  127PVA    H5821517   2.891   0.055   5.254 -4.5850 -1.8978 -4.3687
  127PVA    C3021518   2.774   0.085   5.072  0.1164  1.2703 -0.7496
  127PVA    H5921519   2.842   7.684   5.082  0.5935  1.3801 -2.7100
  127PVA    H6021520   2.689   0.040   5.018 -0.8654 -1.1689  2.4757
  127PVA    C3121521   2.850   0.189   4.987 -0.9668  0.6264  0.4660
  127PVA    H6121522   2.931   0.211   5.057  1.4831  1.0614 -2.3441
  127PVA    H6221523   2.896   0.139   4.901 -0.4410 -0.2361  1.2239
  127PVA    C3221524   2.780   0.319   4.932 -0.8340 -0.0625  0.5590
  127PVA    H6321525   2.796   0.398   5.005 -1.4305  0.3694  0.2316
  127PVA    O1121526   2.649   0.292   4.916 -0.0737 -0.4848 -0.4243
  127PVA    H6421527   2.597   0.282   4.998 -1.6934  2.0218 -1.0343
  127PVA    C3321528   2.836   0.376   4.800 -0.3539  0.6403 -0.4568
  127PVA    H6521529   2.863   0.286   4.743  4.4283  1.7335 -0.4070
  127PVA    H6621530   2.926   0.429   4.835 -1.2411  2.1575 -0.4053
  127PVA    C3421531   2.741   0.472   4.721  0.3482  0.2292  0.7187
  127PVA    H6721532   2.711   0.567   4.767  0.6057  1.0739 -0.8010
  127PVA    H6821533   2.645   0.427   4.696 -0.8111  0.7709  3.7166
  127PVA    C3521534   2.798   0.536   4.586 -0.2597 -0.0175 -0.2382
  127PVA    H6921535   2.858   0.462   4.531  3.6324  2.2998  0.4714
  127PVA    O1221536   2.873   0.642   4.633 -0.2524  0.9894 -0.0649
  127PVA    H7021537   2.925   0.659   4.553 -1.2318 -3.7909 -2.0114
  127PVA    C3621538   2.678   0.587   4.472 -0.0624  0.1270 -1.1890
  127PVA    H7121539   2.618   0.496   4.466  0.7488 -0.3243 -2.9643
  127PVA    H7221540   2.612   0.662   4.517  1.5934  1.9936 -1.6986
  127PVA    C3721541   2.689   0.629   4.310 -0.5033 -0.2818  1.3269
  127PVA    H7321542   2.773   0.587   4.253 -1.4046  0.9340 -1.0431
  127PVA    H7421543   2.746   0.723   4.301 -3.8547  1.8282  0.1520
  127PVA    C3821544   2.564   0.662   4.213 -0.0794 -0.9219 -0.7608
  127PVA    H7521545   2.565   0.771   4.224  3.2604 -1.1136  5.7110
  127PVA    O1321546   2.450   0.612   4.277  0.0425  0.2527 -0.4457
  127PVA    H7621547   2.449   0.664   4.360  0.4647  1.2339 -1.0325
  127PVA    C3921548   2.572   0.621   4.051  0.0109 -0.9236 -0.3156
  127PVA    H7721549   2.543   0.516   4.036  0.9109 -1.0265 -1.4025
  127PVA    H7821550   2.680   0.624   4.036  0.6700 -1.2347  3.4107
  127PVA    C4021551   2.471   0.697   3.954  0.4485 -0.1139 -0.3025
  127PVA    H7921552   2.384   0.639   3.983  0.7591 -0.5788 -0.2944
  127PVA    H8021553   2.446   0.802   3.975  2.5119  0.2698  0.5499
  127PVA    C4121554   2.468   0.677   3.793  0.1138 -0.5852 -0.2160
  127PVA    H8121555   2.365   0.654   3.765  0.1054 -1.3889  0.4333
  127PVA    O1421556   2.547   0.551   3.764  0.0416  0.2884 -0.4146
  127PVA    H8221557   2.519   0.486   3.831  1.8130  1.0959  1.1951
  127PVA    C4221558   2.520   0.800   3.696 -0.4242  1.3420  0.4869
  127PVA    H8321559   2.458   0.887   3.721 -0.4530  2.2681 -2.4705
  127PVA    H8421560   2.621   0.833   3.722 -0.8025  2.1636  0.9796
  127PVA    C4321561   2.514   0.806   3.541 -0.0456  0.8006 -0.0255
  127PVA    H8521562   2.416   0.853   3.526 -0.4220 -0.1995 -0.8223
  127PVA    H8621563   2.518   0.704   3.502 -1.5232  1.3987 -1.9076
  127PVA    C4421564   2.620   0.898   3.464  0.3468 -0.3471 -0.6365
  127PVA    H8721565   2.712   0.838   3.467  0.6259  0.0644  3.3017
  127PVA    O1521566   2.645   1.018   3.549 -0.6329 -0.8256  0.2432
  127PVA    H8821567   2.741   1.011   3.563 -0.7115 -3.2860  0.0401
  127PVA    C4521568   2.589   0.939   3.315  0.0929  0.1740  0.8677
  127PVA    H8921569   2.536   1.034   3.303 -1.2911 -0.8197 -1.4942
  127PVA    H9021570   2.522   0.861   3.278 -2.5619  1.2171  3.0514
  127PVA    C4621571   2.714   0.936   3.213 -0.3389  0.0571  0.0190
  127PVA    H9121572   2.728   0.832   3.183  0.6454  0.7632 -2.1910
  127PVA    H9221573   2.791   0.977   3.279  1.5746 -0.4698 -1.7746
  127PVA    C4721574   2.710   1.042   3.088 -0.7233  1.0946  0.8663
  127PVA    H9321575   2.677   1.128   3.148  1.8660 -0.1393  4.3664
  127PVA    O1621576   2.601   1.008   2.998  0.4810 -0.5936 -1.1693
  127PVA    H9421577   2.642   0.944   2.937  0.7058  1.1139 -2.9023
  127PVA    C4821578   2.829   1.079   2.986  0.3966 -0.7869  0.7601
  127PVA    H9521579   2.911   1.019   3.030  1.0315  2.7627  5.1232
  127PVA    H9621580   2.874   1.172   3.022  1.2929 -1.5805  1.7697
  127PVA    C4921581   2.830   1.065   2.822  0.8034 -0.3050 -0.2601
  127PVA    H9721582   2.738   1.116   2.791  0.7050 -0.6609 -0.5575
  127PVA    H9821583   2.798   0.963   2.799  0.9602 -0.2824 -0.5877
  127PVA    C5021584   2.961   1.117   2.745 -0.0906  0.8198  0.2601
  127PVA    H9921585   2.925   1.215   2.711  1.6590  1.4753  0.1853
  127PVA    O1721586   3.064   1.128   2.839  0.4477 -1.3237  0.1910
  127PVA   H10021587   3.057   1.044   2.889 -2.1452 -0.3135  1.7830
  127PVA    C5121588   3.019   1.069   2.604  0.2000 -0.2900 -0.0674
  127PVA   H10121589   2.948   0.992   2.571 -2.7374  1.8455  0.9363
  127PVA   H10221590   3.117   1.022   2.620  0.7751  0.8043 -0.2609
  128PVA     C121591   0.210   0.055   4.395 -0.4174  0.0418  0.3190
  128PVA     H121592   0.214   0.021   4.291  0.7754  2.1779 -0.4030
  128PVA     H221593   0.213   0.165   4.390 -0.9878  0.2313  2.5850
  128PVA     C221594   0.348   0.017   4.451 -0.6763  0.0864 -0.7096
  128PVA     H321595   0.358   7.592   4.447 -4.0451 -0.3841  0.3232
  128PVA     O121596   0.363   0.044   4.585 -0.1017 -0.3528 -0.4344
  128PVA     H421597   0.385   7.651   4.639 -3.8194  0.7276  3.1485
  128PVA     C321598   0.460   0.080   4.373  0.2767  0.5071  0.4669
  128PVA     H521599   0.432   0.182   4.343  2.0985  0.3391 -2.1518
  128PVA     H621600   0.436   0.015   4.288 -3.4104 -1.6176  2.8835
  128PVA     C421601   0.604   0.061   4.416  0.0461 -0.7100  0.2635
  128PVA     H721602   0.615   0.027   4.519  5.0809  2.0937  0.9877
  128PVA     H821603   0.626   7.656   4.356 -3.0963 -0.3790 -1.6093
  128PVA     C521604   0.709   0.174   4.397 -0.7225 -0.4150  0.4569
  128PVA     H921605   0.670   0.252   4.463 -2.6453 -0.2841 -0.7527
  128PVA     O221606   0.711   0.217   4.266  0.1752 -0.7386 -0.1419
  128PVA    H1021607   0.620   0.187   4.247 -0.1246 -1.6837  2.4297
  128PVA     C621608   0.855   0.132   4.433 -0.1575 -0.0727  0.4601
  128PVA    H1121609   0.903   0.209   4.495  0.6015 -0.4134  0.3083
  128PVA    H1221610   0.849   0.048   4.504 -0.2545 -1.5170 -1.1831
  128PVA     C721611   0.961   0.085   4.336 -0.4095  0.2941  0.8929
  128PVA    H1321612   0.931   7.666   4.319 -0.9190 -0.1227  3.8187
  128PVA    H1421613   0.968   0.131   4.236  1.9928 -0.2485  0.7366
  128PVA     C821614   1.108   0.087   4.395 -0.3641 -0.3508  0.4741
  128PVA    H1521615   1.130   0.191   4.421 -1.0417 -0.3833  1.2407
  128PVA     O321616   1.108   0.010   4.525  0.0888  0.1724  0.0434
  128PVA    H1621617   1.195   0.025   4.566  2.2098  1.6737 -4.3555
  128PVA     C921618   1.220   0.027   4.298 -0.2058 -0.6822 -0.7203
  128PVA    H1721619   1.216   0.094   4.212 -3.1103  2.1907  1.4277
  128PVA    H1821620   1.179   7.614   4.267  0.1279 -0.6104 -1.4063
  128PVA    C1021621   1.352   0.019   4.362 -0.3932  0.7893  0.2028
  128PVA    H1921622   1.344   0.074   4.456 -1.9552  2.1832 -0.6996
  128PVA    H2021623   1.386   7.601   4.381  0.7092  1.0391 -0.3026
  128PVA    C1121624   1.471   0.089   4.290 -0.4368  0.2014  0.0777
  128PVA    H2121625   1.432   0.185   4.256 -1.0923  0.7172  2.1753
  128PVA     O421626   1.510   7.680   4.182 -0.1679  1.2681 -0.7030
  128PVA    H2221627   1.537   0.059   4.114 -0.6304  4.1127  1.5649
  128PVA    C1221628   1.585   0.128   4.384 -0.4216 -0.0732  0.2446
  128PVA    H2321629   1.567   0.177   4.481 -0.7320  0.8540 -0.2651
  128PVA    H2421630   1.620   0.032   4.424  1.4771  0.7929  0.7366
  128PVA    C1321631   1.720   0.180   4.330  0.2837 -0.4127 -0.1167
  128PVA    H2521632   1.706   0.237   4.237  0.0614 -0.4989 -0.1364
  128PVA    H2621633   1.792   0.102   4.304  1.0335  0.2441 -0.0460
  128PVA    C1421634   1.795   0.289   4.415 -0.7594  0.2474 -0.0365
  128PVA    H2721635   1.748   0.386   4.437  1.5856  1.1332  1.4916
  128PVA     O521636   1.805   0.232   4.546  1.2875 -0.0370  0.0484
  128PVA    H2821637   1.895   0.265   4.565  1.5282 -0.6527 -0.0141
  128PVA    C1521638   1.933   0.333   4.355  0.2947  0.5697 -0.0528
  128PVA    H2921639   1.967   0.432   4.385  4.7698 -0.0844 -2.1345
  128PVA    H3021640   1.908   0.339   4.249  3.8206 -3.1258 -1.3478
  128PVA    C1621641   2.073   0.260   4.349 -0.2141  0.4709  0.4566
  128PVA    H3121642   2.112   0.241   4.450  2.8304 -0.2696 -0.7448
  128PVA    H3221643   2.039   0.162   4.313 -1.6654 -0.1557  3.2174
  128PVA    C1721644   2.191   0.314   4.267  0.2973 -0.4254  0.4651
  128PVA    H3321645   2.171   0.300   4.160  0.7877  1.4880  0.0804
  128PVA     O621646   2.198   0.455   4.291  0.8919  0.0850 -1.4399
  128PVA    H3421647   2.282   0.471   4.338  0.0981 -0.4467  0.2545
  128PVA    C1821648   2.322   0.248   4.291  0.0762  0.5633  0.0364
  128PVA    H3521649   2.330   0.240   4.400 -0.5807 -2.7746 -0.0507
  128PVA    H3621650   2.314   0.142   4.263 -0.4090  0.6413 -0.1298
  128PVA    C1921651   2.453   0.318   4.233  1.0756 -0.3938  0.0289
  128PVA    H3721652   2.424   0.381   4.148 -3.5280 -1.9916  0.1192
  128PVA    H3821653   2.490   0.378   4.317 -1.7173 -0.2833  1.3167
  128PVA    C2021654   2.575   0.228   4.196  0.9188  0.5126  0.1359
  128PVA    H3921655   2.578   0.229   4.086  1.1580 -0.0663  0.1310
  128PVA     O721656   2.613   0.101   4.241  0.1681 -0.0524  1.0162
  128PVA    H4021657   2.684   0.114   4.306  0.0007 -2.5433  1.7973
  128PVA    C2121658   2.718   0.291   4.189  0.3149  0.0179 -1.0277
  128PVA    H4121659   2.713   0.381   4.126  0.9413  1.4175  0.8316
  128PVA    H4221660   2.775   0.219   4.129  0.1134  0.1616 -1.3941
  128PVA    C2221661   2.816   0.313   4.305  0.6551 -0.4338  0.6340
  128PVA    H4321662   2.765   0.361   4.389  1.1753  2.0071 -0.3426
  128PVA    H4421663   2.844   0.216   4.349  3.9964  0.2370  0.2815
  128PVA    C2321664   2.946   0.394   4.264 -0.3650 -0.2584 -0.0449
  128PVA    H4521665   2.911   0.453   4.178  0.2031 -2.3535 -1.7962
  128PVA     O821666   3.035   0.297   4.218 -0.5036 -0.1874 -1.6148
  128PVA    H4621667   3.064   0.308   4.126 -0.7422 -1.4609 -1.8639
  128PVA    C2421668   3.021   0.492   4.359 -0.0855 -0.2697  0.2206
  128PVA    H4721669   2.949   0.572   4.379  2.9897  3.1480 -1.2933
  128PVA    H4821670   3.032   0.424   4.445 -0.2676 -3.2309 -1.9405
  128PVA    C2521671   3.157   0.561   4.298  0.3573  0.1599 -1.0858
  128PVA    H4921672   3.138   0.582   4.192  2.2251 -0.0976 -1.5050
  128PVA    H5021673   3.217   0.469   4.302 -3.5429 -2.5775  0.1049
  128PVA    C2621674   3.219   0.690   4.366 -1.7267  0.4559  0.6067
  128PVA    H5121675   3.304   0.658   4.428 -1.4254  0.0435 -0.0094
  128PVA     O921676   3.123   0.754   4.447  1.2555 -0.2448 -0.8554
  128PVA    H5221677   3.183   0.761   4.523  0.0689 -2.3502  0.3778
  128PVA    C2721678   3.294   0.785   4.270 -0.3594 -0.1254 -0.6056
  128PVA    H5321679   3.241   0.766   4.176  0.3992  3.5265 -1.9459
  128PVA    H5421680   3.399   0.758   4.256  0.8454  1.0641  4.2559
  128PVA    C2821681   3.304   0.938   4.310  0.1607 -0.6246  0.2387
  128PVA    H5521682   3.321   0.935   4.419 -0.6844  0.5588  0.4306
  128PVA    H5621683   3.203   0.982   4.307  0.1021 -0.1526  3.8157
  128PVA    C2921684   3.408   1.029   4.237  0.3311 -0.4033  0.3964
  128PVA    H5721685   3.493   0.965   4.262 -0.0931 -2.1342 -2.2151
  128PVA    O1021686   3.393   1.029   4.095 -0.0918  0.5440 -0.6068
  128PVA    H5821687   3.338   0.953   4.072 -0.6298  1.5277 -2.8071
  128PVA    C3021688   3.422   1.176   4.290 -0.8883 -0.5674  0.7239
  128PVA    H5921689   3.419   1.167   4.400  1.2040 -0.2161  0.8473
  128PVA    H6021690   3.519   1.221   4.265 -0.4905 -1.4091  0.7235
  128PVA    C3121691   3.297   1.276   4.247 -0.2304  0.4948  1.0995
  128PVA    H6121692   3.206   1.251   4.304 -1.4842 -2.2345 -1.7731
  128PVA    H6221693   3.283   1.277   4.139 -1.6121 -1.4551  1.2047
  128PVA    C3221694   3.326   1.418   4.276 -0.1112  0.1950 -0.4886
  128PVA    H6321695   3.424   1.436   4.229  0.6506 -1.7725  0.2421
  128PVA    O1121696   3.341   1.455   4.411  0.3416  1.2454 -0.3420
  128PVA    H6421697   3.369   1.548   4.406  0.9874  0.9917 -2.1425
  128PVA    C3321698   3.214   1.502   4.206 -0.1192 -0.9860  1.4901
  128PVA    H6521699   3.265   1.514   4.109 -0.5307 -1.5263  1.2002
  128PVA    H6621700   3.211   1.607   4.238 -2.8399  0.3470 -2.3213
  128PVA    C3421701   3.063   1.452   4.183  0.0720  0.2057  0.7357
  128PVA    H6721702   3.069   1.351   4.141 -1.1297 -1.1994  3.6459
  128PVA    H6821703   3.023   1.439   4.285  1.3716  1.4846  1.4457
  128PVA    C3521704   2.967   1.525   4.089  0.1980 -0.8985  0.7179
  128PVA    H6921705   3.023   1.558   4.001  0.3517 -0.6571  0.9039
  128PVA    O1221706   2.938   1.638   4.157  0.1884 -1.2035  0.5035
  128PVA    H7021707   2.957   1.713   4.098  1.1813 -2.3176 -0.6790
  128PVA    C3621708   2.827   1.466   4.047  0.2650 -0.3696 -0.9673
  128PVA    H7121709   2.841   1.358   4.030  0.4576 -0.3134 -1.1715
  128PVA    H7221710   2.762   1.458   4.135  3.6871  1.5261  2.0285
  128PVA    C3721711   2.760   1.542   3.929  0.2968 -0.1322  0.1802
  128PVA    H7321712   2.833   1.558   3.849  2.3642 -3.6286  1.1244
  128PVA    H7421713   2.744   1.640   3.975 -2.9271 -1.1978  1.5974
  128PVA    C3821714   2.620   1.479   3.881  0.0834 -0.7283 -0.4243
  128PVA    H7521715   2.532   1.543   3.894 -0.5013 -1.3346 -1.2624
  128PVA    O1321716   2.598   1.365   3.958  0.1526 -0.5306 -0.3895
  128PVA    H7621717   2.624   1.287   3.906 -2.3745 -1.3388 -0.6260
  128PVA    C3921718   2.640   1.427   3.735 -0.2360 -0.4434 -0.4961
  128PVA    H7721719   2.692   1.331   3.739  1.1991  0.3230  1.7046
  128PVA    H7821720   2.708   1.496   3.684  1.0883 -1.4119 -0.1001
  128PVA    C4021721   2.504   1.414   3.649 -0.4139 -0.2645 -0.1013
  128PVA    H7921722   2.421   1.376   3.710 -0.3963 -1.2804 -0.6809
  128PVA    H8021723   2.481   1.514   3.611  0.9535 -0.1518 -0.6893
  128PVA    C4121724   2.497   1.317   3.527 -0.1271 -0.9148 -1.0197
  128PVA    H8121725   2.602   1.299   3.502  0.3355  0.4123 -0.1808
  128PVA    O1421726   2.446   1.195   3.561  0.3564 -0.0961  0.6506
  128PVA    H8221727   2.499   1.121   3.528  0.4265  1.4436 -3.3680
  128PVA    C4221728   2.438   1.370   3.394  0.8275  0.4644 -0.5254
  128PVA    H8321729   2.329   1.364   3.384  1.0633 -1.1991 -2.9025
  128PVA    H8421730   2.442   1.479   3.403 -4.2860  1.1461 -2.8078
  128PVA    C4321731   2.496   1.320   3.263 -1.5081  1.0081  0.1337
  128PVA    H8521732   2.446   1.231   3.224 -4.2242  2.4900  0.0209
  128PVA    H8621733   2.600   1.287   3.274 -2.3457 -1.1503  2.5000
  128PVA    C4421734   2.477   1.425   3.146  0.4676 -0.3563 -0.0756
  128PVA    H8721735   2.526   1.518   3.176  1.3806 -0.0130 -2.4182
  128PVA    O1521736   2.339   1.430   3.097 -1.9129  0.7881  0.0849
  128PVA    H8821737   2.314   1.516   3.135 -0.4201  0.4175  2.0654
  128PVA    C4521738   2.562   1.393   3.017 -1.5326 -0.5583  0.3378
  128PVA    H8921739   2.660   1.399   3.066 -1.6666  2.8435  0.4629
  128PVA    H9021740   2.539   1.298   2.967  0.2871 -0.1248 -1.4803
  128PVA    C4621741   2.588   1.507   2.909  0.4938  0.1538  0.4093
  128PVA    H9121742   2.494   1.517   2.853  0.9764 -0.7112 -0.5728
  128PVA    H9221743   2.580   1.599   2.969 -1.0092  2.7929 -3.4152
  128PVA    C4721744   2.723   1.506   2.843 -0.7599  0.4425 -0.6534
  128PVA    H9321745   2.794   1.547   2.915 -1.9356 -0.6490  1.2109
  128PVA    O1621746   2.764   1.378   2.831 -0.3390 -0.0518  0.2919
  128PVA    H9421747   2.694   1.333   2.881 -1.4674  1.4153  0.1273
  128PVA    C4821748   2.725   1.580   2.698 -0.6324  1.1689  1.0916
  128PVA    H9521749   2.638   1.547   2.641  2.5833 -0.3995 -3.4026
  128PVA    H9621750   2.730   1.690   2.697  1.2052  1.1312  1.8963
  128PVA    C4921751   2.831   1.528   2.592  1.1808  0.3017  0.0193
  128PVA    H9721752   2.856   1.422   2.607  2.2903  0.4934 -0.3870
  128PVA    H9821753   2.930   1.574   2.602  0.7030  1.2479  0.5993
  128PVA    C5021754   2.768   1.529   2.442  0.2207 -0.3713  0.6745
  128PVA    H9921755   2.677   1.468   2.441  1.1632 -1.8334 -0.2968
  128PVA    O1721756   2.744   1.654   2.410 -0.7234  0.5450  0.6059
  128PVA   H10021757   2.700   1.690   2.489 -1.2875  0.9990  0.0956
  128PVA    C5121758   2.869   1.474   2.334  0.9483 -0.1032  0.1386
  128PVA   H10121759   2.796   1.450   2.256  1.0099 -0.1891  0.1063
  128PVA   H10221760   2.921   1.560   2.290  0.7740 -0.7256 -1.3416
  129PVA     C121761   7.679   7.354   4.336  0.6938  0.3381 -0.2784
  129PVA     H121762   7.760   7.326   4.268  0.5268 -1.5317  0.2457
  129PVA     H221763   7.685   7.289   4.424  1.3580  2.2188  1.1424
  129PVA     C221764   7.542   7.320   4.267  0.2123 -0.8055  0.1831
  129PVA     H321765   7.519   7.381   4.179  0.6195  0.3937  0.8817
  129PVA     O121766   7.444   7.366   4.363 -0.2084  0.4169 -0.1035
  129PVA     H421767   7.473   7.436   4.425 -0.7066 -0.4900  1.2148
  129PVA     C321768   7.501   7.170   4.237  0.1646  0.1931  0.1453
  129PVA     H521769   7.498   7.119   4.335 -2.1703  2.7199  1.5115
  129PVA     H621770   7.410   7.180   4.177  3.3516 -0.6528 -5.5218
  129PVA     C421771   7.611   7.107   4.156 -0.0571  0.9346 -0.6094
  129PVA     H721772   7.706   7.093   4.209 -0.7621 -0.1823  0.4028
  129PVA     H821773   7.640   7.183   4.082  0.9246  0.1469 -1.0497
  129PVA     C521774   7.569   6.973   4.073  0.1206 -0.0164  0.2532
  129PVA     H921775   7.498   6.991   3.992  1.8268 -2.2164 -1.8580
  129PVA     O221776   7.519   6.869   4.161  0.7644 -0.0828  0.0665
  129PVA    H1021777   7.554   6.788   4.119 -2.9441 -0.5827 -2.5590
  129PVA     C621778   7.682   6.910   3.992  0.0511 -0.8919  0.1923
  129PVA    H1121779   7.711   6.981   3.914 -1.1529  0.3840  0.8482
  129PVA    H1221780   0.013   6.897   4.042  2.9060 -0.3522 -4.6317
  129PVA     C721781   7.646   6.779   3.916 -0.3499 -0.3183 -1.3257
  129PVA    H1321782   7.543   6.775   3.879  0.2980  2.0619 -3.6769
  129PVA    H1421783   7.657   6.702   3.994  0.4465  0.2216 -0.8906
  129PVA     C821784   7.727   6.727   3.798 -0.5919 -0.1331  0.6496
  129PVA    H1521785   0.060   6.704   3.840 -0.6383 -0.7364  0.4364
  129PVA     O321786   7.734   6.828   3.695 -1.0159  0.3329  0.5094
  129PVA    H1621787   0.063   6.850   3.686 -0.2425 -3.0153 -1.2059
  129PVA     C921788   7.659   6.602   3.735  0.6175  0.6797 -0.0508
  129PVA    H1721789   7.571   6.631   3.676 -0.4457 -0.5511  0.8811
  129PVA    H1821790   7.618   6.549   3.822 -2.1295  0.4167 -1.4070
  129PVA    C1021791   7.735   6.500   3.631  0.3210  0.7129  0.2358
  129PVA    H1921792   7.737   6.547   3.532 -6.0338 -1.4038 -1.3645
  129PVA    H2021793   0.067   6.481   3.676  0.0169  1.5780  1.3287
  129PVA    C1121794   7.670   6.360   3.606 -0.7923 -0.4853  0.1523
  129PVA    H2121795   7.561   6.364   3.598 -1.4665 -4.5141  3.7306
  129PVA     O421796   7.705   6.292   3.727  0.2281  0.8276  0.1785
  129PVA    H2221797   7.689   6.198   3.706  2.0200  1.1286 -3.2211
  129PVA    C1221798   7.718   6.294   3.478  0.6110  1.4974 -1.3774
  129PVA    H2321799   7.637   6.311   3.406 -0.8754  2.7341  0.4986
  129PVA    H2421800   0.032   6.355   3.433  2.5618  0.3452  0.3310
  129PVA    C1321801   0.003   6.136   3.473  0.1902 -0.6313  0.6993
  129PVA    H2521802   0.102   6.141   3.521 -1.0582  2.4638  3.3368
  129PVA    H2621803   0.016   6.099   3.371 -2.1541 -0.1110  0.1552
  129PVA    C1421804   7.669   6.023   3.531  0.5067 -0.5587  0.0364
  129PVA    H2721805   7.561   6.034   3.518 -0.1398 -1.6454  3.3684
  129PVA     O521806   7.674   6.038   3.682 -0.2516  0.4954  0.7718
  129PVA    H2821807   7.749   5.980   3.704 -0.1280  0.2971 -0.1226
  129PVA    C1521808   7.709   5.879   3.508 -0.7671 -1.2170 -0.4380
  129PVA    H2921809   0.036   5.856   3.562 -0.5857  1.6256  0.6150
  129PVA    H3021810   7.648   5.821   3.578  2.7836  0.1790  4.3858
  129PVA    C1621811   7.689   5.825   3.361  0.2478  0.6656 -0.1835
  129PVA    H3121812   7.596   5.773   3.332 -0.3336  3.0879 -3.2873
  129PVA    H3221813   7.659   5.907   3.293  0.6805 -0.0550 -1.2708
  129PVA    C1721814   0.045   5.755   3.296 -0.3680 -1.0459  0.7406
  129PVA    H3321815   0.114   5.840   3.289 -2.8502  0.9983 -0.6219
  129PVA     O621816   0.108   5.642   3.366  0.0273 -0.4401 -0.2584
  129PVA    H3421817   0.033   5.582   3.380  0.7416 -1.7234 -1.6077
  129PVA    C1821818   0.033   5.707   3.154  0.9159  0.0518 -0.1496
  129PVA    H3521819   7.728   5.624   3.143 -1.4265  1.7037  1.6893
  129PVA    H3621820   7.757   5.794   3.102  2.6179  2.1839  1.8934
  129PVA    C1921821   0.177   5.668   3.103  0.1905  0.3845  0.0788
  129PVA    H3721822   0.199   5.589   3.177  0.5349  0.8036  0.4251
  129PVA    H3821823   0.260   5.738   3.115 -0.2888  1.3754 -1.9506
  129PVA    C2021824   0.186   5.614   2.965  1.7329 -1.2352 -0.6937
  129PVA    H3921825   0.196   5.701   2.899 -1.5903 -0.2740 -0.1173
  129PVA     O721826   0.069   5.535   2.931 -0.3688 -0.4624 -0.2590
  129PVA    H4021827   0.006   5.603   2.959 -1.6633 -2.4808  2.1354
  129PVA    C2121828   0.315   5.542   2.936 -1.0774  0.0022  0.9971
  129PVA    H4121829   0.407   5.599   2.957  2.0766 -4.7859  2.0034
  129PVA    H4221830   0.321   5.452   2.999  0.8304 -2.3089 -2.1882
  129PVA    C2221831   0.334   5.494   2.778  0.0489  1.0687  0.1963
  129PVA    H4321832   0.295   5.572   2.712 -0.3380 -1.4017 -2.7803
  129PVA    H4421833   0.269   5.409   2.751  0.5503  1.0710 -1.0917
  129PVA    C2321834   0.477   5.452   2.739  0.3377  0.9251  0.7958
  129PVA    H4521835   0.480   5.447   2.629 -0.4760  4.1538  0.5164
  129PVA     O821836   0.580   5.549   2.749  0.4799 -0.0653  0.3579
  129PVA    H4621837   0.666   5.516   2.782  1.4482  1.7541 -0.2299
  129PVA    C2421838   0.507   5.321   2.814 -0.5044  0.0983 -0.0015
  129PVA    H4721839   0.563   5.336   2.907 -0.7369 -0.1009  0.1742
  129PVA    H4821840   0.411   5.280   2.848 -0.8221  1.2822  0.5779
  129PVA    C2521841   0.556   5.221   2.700 -0.0708  0.5055  0.3388
  129PVA    H4921842   0.477   5.197   2.627  0.6191 -2.2515  0.4219
  129PVA    H5021843   0.624   5.261   2.624 -0.1254 -4.4400 -2.7677
  129PVA    C2621844   0.630   5.097   2.758 -0.6218  0.3117 -0.6465
  129PVA    H5121845   0.726   5.134   2.796 -2.5377  3.0938  1.9893
  129PVA     O921846   0.551   5.038   2.866 -0.0987 -0.6791  0.7545
  129PVA    H5221847   0.460   5.016   2.838 -2.0796  2.3118  4.0085
  129PVA    C2721848   0.653   4.978   2.659 -0.3291  0.1767  0.4930
  129PVA    H5321849   0.691   5.013   2.562 -0.0108 -3.7334 -0.9993
  129PVA    H5421850   0.567   4.918   2.628  0.3111 -2.0491  2.6448
  129PVA    C2821851   0.741   4.869   2.714 -0.2658 -0.5722  0.6857
  129PVA    H5521852   0.830   4.915   2.758 -0.5506  1.0343 -0.3425
  129PVA    H5621853   0.683   4.817   2.791  1.7498 -2.3810  1.1055
  129PVA    C2921854   0.805   4.770   2.613 -0.5331  0.5699 -0.5383
  129PVA    H5721855   0.906   4.798   2.580  0.0245 -1.8552 -1.1281
  129PVA    O1021856   0.835   4.646   2.686  0.2349  0.0336  1.3433
  129PVA    H5821857   0.760   4.588   2.709 -0.0736  1.0051  2.9807
  129PVA    C3021858   0.730   4.731   2.481 -0.1783 -1.0170  0.2668
  129PVA    H5921859   0.756   4.800   2.400  0.1082 -1.6885 -0.2184
  129PVA    H6021860   0.626   4.754   2.507 -0.8527 -3.0962 -0.3952
  129PVA    C3121861   0.748   4.591   2.424  0.3113 -0.3308  0.1284
  129PVA    H6121862   0.692   4.522   2.488  1.8773 -0.6872  1.1646
  129PVA    H6221863   0.853   4.567   2.446  0.6965  2.6386  2.3387
  129PVA    C3221864   0.689   4.562   2.273  0.7974 -0.9303 -0.7349
  129PVA    H6321865   0.580   4.574   2.273  0.9543  1.0256  1.1221
  129PVA    O1121866   0.738   4.673   2.194 -0.7177  0.1342  0.1835
  129PVA    H6421867   0.662   4.733   2.189 -2.4883 -1.8791  1.7432
  129PVA    C3321868   0.743   4.431   2.230 -0.3342 -0.1186 -1.2251
  129PVA    H6521869   0.724   4.356   2.307 -0.9091 -0.4933 -1.7310
  129PVA    H6621870   0.852   4.440   2.220 -0.5584  1.1861 -2.9204
  129PVA    C3421871   0.682   4.370   2.113 -0.0479  1.1239  0.1934
  129PVA    H6721872   0.654   4.444   2.037 -2.6662  1.0954  1.0231
  129PVA    H6821873   0.582   4.335   2.140  0.4698  0.6148  1.5380
  129PVA    C3521874   0.780   4.270   2.048 -0.7714  0.0440  0.2840
  129PVA    H6921875   0.886   4.290   2.068  0.1241 -0.7922 -2.9649
  129PVA    O1221876   0.741   4.265   1.903  0.4739 -0.2546 -0.0774
  129PVA    H7021877   0.804   4.318   1.851  0.9764  1.2639  1.9357
  129PVA    C3621878   0.756   4.128   2.113 -0.2500  0.6608  0.8666
  129PVA    H7121879   0.772   4.134   2.221  3.5164  0.2573  0.4783
  129PVA    H7221880   0.653   4.105   2.084  0.3408  1.1077 -1.9481
  129PVA    C3721881   0.868   4.019   2.077  0.6714  0.4391  0.4852
  129PVA    H7321882   0.962   4.050   2.124  2.0890  2.8358 -3.4054
  129PVA    H7421883   0.898   4.032   1.972 -0.1701  1.4381  0.3473
  129PVA    C3821884   0.834   3.869   2.094  0.2217  1.3611  0.4721
  129PVA    H7521885   0.794   3.819   2.005  0.9559 -2.5132  2.1179
  129PVA    O1321886   0.738   3.856   2.190  0.1776 -0.4034  1.1471
  129PVA    H7621887   0.777   3.880   2.277 -1.4888  0.0556  1.8013
  129PVA    C3921888   0.946   3.768   2.127  0.4077 -0.6299 -1.0642
  129PVA    H7721889   0.979   3.776   2.231 -1.0170 -0.3597 -0.6143
  129PVA    H7821890   1.035   3.776   2.064  1.1133  1.5117  0.0997
  129PVA    C4021891   0.900   3.622   2.115 -0.3626  0.0268 -0.2732
  129PVA    H7921892   0.989   3.565   2.145 -1.7245 -3.3359 -2.0384
  129PVA    H8021893   0.822   3.612   2.191 -0.4893 -2.2343 -0.6449
  129PVA    C4121894   0.858   3.564   1.976  0.0786  1.0341  0.4937
  129PVA    H8121895   0.843   3.455   1.984 -1.3861  1.2003  0.2968
  129PVA    O1421896   0.739   3.610   1.911  1.1346  0.8535 -0.1478
  129PVA    H8221897   0.706   3.534   1.860 -1.9040  0.5168  2.0469
  129PVA    C4221898   0.969   3.553   1.858  1.2407 -0.8737 -0.0521
  129PVA    H8321899   0.927   3.609   1.773 -1.5221 -1.6692  0.7001
  129PVA    H8421900   1.058   3.610   1.886 -0.9545  1.8831  1.9167
  129PVA    C4321901   0.987   3.411   1.816 -0.2090  0.7620  0.7279
  129PVA    H8521902   0.885   3.381   1.792 -0.8568  2.4466  1.1923
  129PVA    H8621903   1.027   3.348   1.896 -1.3898 -0.3328  0.4879
  129PVA    C4421904   1.099   3.389   1.698  0.3823 -0.2419 -0.4849
  129PVA    H8721905   1.069   3.452   1.613  0.2414 -0.3374 -0.5073
  129PVA    O1521906   1.221   3.439   1.750  0.0551  1.0215  0.7798
  129PVA    H8821907   1.272   3.466   1.672  1.3842  1.0584  1.6190
  129PVA    C4521908   1.124   3.234   1.669  0.5310  0.4136  0.2251
  129PVA    H8921909   1.157   3.174   1.754 -0.7334  1.4576  1.4913
  129PVA    H9021910   1.023   3.194   1.655  1.7344 -2.3807 -1.3511
  129PVA    C4621911   1.213   3.189   1.548  0.9223 -1.1297  0.1768
  129PVA    H9121912   1.186   3.233   1.451  0.9936  1.2477  1.1525
  129PVA    H9221913   1.304   3.236   1.589  1.6658 -1.7824 -0.6841
  129PVA    C4721914   1.236   3.041   1.531  0.6338 -0.0113  0.4628
  129PVA    H9321915   1.241   2.988   1.627 -3.2989  0.8004  1.3063
  129PVA    O1621916   1.113   2.991   1.473 -0.5806 -1.7569  0.7223
  129PVA    H9421917   1.037   3.041   1.507 -0.0733  0.2371 -0.8614
  129PVA    C4821918   1.360   2.994   1.452  1.1725  0.7303  0.2494
  129PVA    H9521919   1.437   3.073   1.456  1.4064  0.4553  2.6118
  129PVA    H9621920   1.406   2.916   1.513 -1.4889 -1.3928 -0.3013
  129PVA    C4921921   1.339   2.936   1.305 -0.0991 -0.0958 -0.7857
  129PVA    H9721922   1.260   2.998   1.259 -3.9350 -2.2490  2.3049
  129PVA    H9821923   1.290   2.839   1.323  1.2305 -0.5254  0.7694
  129PVA    C5021924   1.467   2.907   1.219 -0.0781 -1.0195 -0.9509
  129PVA    H9921925   1.441   2.838   1.138 -0.7564  0.1825 -1.7956
  129PVA    O1721926   1.496   3.040   1.172 -0.1566 -1.0064 -0.6820
  129PVA   H10021927   1.557   3.073   1.241 -0.2141  3.0490 -2.3384
  129PVA    C5121928   1.598   2.857   1.289  0.3864  0.1687  0.1510
  129PVA   H10121929   1.564   2.791   1.371 -0.1688  2.4374  1.8402
  129PVA   H10221930   1.658   2.934   1.340  0.7963 -0.6862  1.0018
  130PVA     C121931   3.458   1.586   1.657  0.4871  0.1415 -0.0149
  130PVA     H121932   3.419   1.626   1.563  3.9228 -1.4332 -2.3317
  130PVA     H221933   3.377   1.597   1.730  1.6204 -0.3074  1.3525
  130PVA     C221934   3.594   1.656   1.698 -0.4869 -1.2945  0.5788
  130PVA     H321935   3.652   1.566   1.724 -2.1381 -2.5056  0.2346
  130PVA     O121936   3.646   1.733   1.585  0.2599  0.2847 -1.0426
  130PVA     H421937   3.580   1.799   1.558  3.3623  2.4693 -4.2284
  130PVA     C321938   3.596   1.732   1.837 -0.0289 -0.0046  0.2498
  130PVA     H521939   3.699   1.760   1.860 -0.5078  0.4950  1.8632
  130PVA     H621940   3.577   1.666   1.922 -0.7938  2.1950  1.8729
  130PVA     C421941   3.497   1.852   1.850 -0.1138 -0.7300  0.0708
  130PVA     H721942   3.548   1.919   1.781  3.4056 -1.6994  1.4776
  130PVA     H821943   3.396   1.831   1.812 -0.1251 -0.9139  0.1948
  130PVA     C521944   3.493   1.915   1.989 -0.0790  0.1642 -1.2722
  130PVA     H921945   3.425   1.859   2.054  3.4749 -2.6264  0.3295
  130PVA     O221946   3.621   1.935   2.046  0.8589 -0.8202 -0.0749
  130PVA    H1021947   3.661   2.020   2.021 -1.1763  1.0440  2.4158
  130PVA     C621948   3.424   2.046   2.002  0.0954  0.4668  0.1732
  130PVA    H1121949   3.349   2.037   1.923 -0.2616 -0.0827  0.5677
  130PVA    H1221950   3.490   2.126   1.967 -1.3947  0.5824 -2.6409
  130PVA     C721951   3.361   2.081   2.141  0.0408  0.1396  0.5611
  130PVA    H1321952   3.273   2.017   2.149  1.8286 -2.6553 -0.5002
  130PVA    H1421953   3.435   2.044   2.213 -0.7681  0.6166  1.6632
  130PVA     C821954   3.334   2.232   2.162  0.1877 -0.0137  0.8075
  130PVA    H1521955   3.424   2.287   2.132  0.7635 -1.0075  0.6446
  130PVA     O321956   3.236   2.281   2.074  0.5304  1.1961 -0.7101
  130PVA    H1621957   3.283   2.295   1.990  0.4763  1.9388 -0.6300
  130PVA     C921958   3.293   2.272   2.303  0.1803 -0.0720 -0.7163
  130PVA    H1721959   3.360   2.212   2.365 -1.3174 -3.2638 -1.9247
  130PVA    H1821960   3.185   2.258   2.322  0.8996 -3.8350  1.7318
  130PVA    C1021961   3.311   2.419   2.357  0.6087  0.3188 -0.2587
  130PVA    H1921962   3.209   2.455   2.338 -0.0150 -1.2821 -0.0555
  130PVA    H2021963   3.325   2.404   2.465  0.6201 -1.2230 -0.4595
  130PVA    C1121964   3.428   2.497   2.306  1.1253 -0.2248 -0.2653
  130PVA    H2121965   3.505   2.418   2.308  1.1536 -0.2686 -1.8825
  130PVA     O421966   3.420   2.559   2.170  0.4449  0.7462  0.8662
  130PVA    H2221967   3.361   2.637   2.178 -1.5283  0.3038 -5.0096
  130PVA    C1221968   3.489   2.603   2.407  0.0511  0.0219  0.0321
  130PVA    H2321969   3.427   2.693   2.417 -0.2081 -0.2380  0.8372
  130PVA    H2421970   3.495   2.538   2.495  0.0249  0.1636  0.1387
  130PVA    C1321971   3.634   2.640   2.359  0.1934 -0.3270 -0.8715
  130PVA    H2521972   3.707   2.559   2.364  2.1058  1.3406  3.6946
  130PVA    H2621973   3.634   2.689   2.261 -1.5184  0.6307 -0.4447
  130PVA    C1421974   3.690   2.735   2.470  0.3224 -0.1251  0.4745
  130PVA    H2721975   3.662   2.687   2.564 -0.2082  0.0643  0.4126
  130PVA     O521976   3.615   2.849   2.444  0.5815  0.1552 -0.1512
  130PVA    H2821977   3.524   2.817   2.457 -0.7557  2.7357 -2.3475
  130PVA    C1521978   3.851   2.748   2.480 -0.3991 -0.0165  0.0398
  130PVA    H2921979   3.909   2.805   2.406  3.1492 -0.4898  2.2240
  130PVA    H3021980   3.879   2.645   2.458 -3.9381 -0.8428 -1.1896
  130PVA    C1621981   3.909   2.799   2.613  0.6163  0.6375 -0.1976
  130PVA    H3121982   3.907   2.908   2.615 -1.4706  0.8557 -4.4846
  130PVA    H3221983   3.863   2.763   2.706  2.0625  0.7397  0.5920
  130PVA    C1721984   4.061   2.780   2.639  1.1138  0.6403 -0.7005
  130PVA    H3321985   4.100   2.865   2.582  3.6709  0.5740  0.7970
  130PVA     O621986   4.099   2.657   2.572 -1.5552 -0.8475  0.3905
  130PVA    H3421987   4.193   2.638   2.586 -1.4271 -0.3962  0.1639
  130PVA    C1821988   4.091   2.787   2.808  0.1635 -0.1257  0.3542
  130PVA    H3521989   4.176   2.855   2.823 -0.6926  1.4660 -1.6056
  130PVA    H3621990   4.010   2.838   2.861  0.1454 -0.0223  0.2267
  130PVA    C1921991   4.106   2.646   2.877 -0.5951  1.1743  0.6344
  130PVA    H3721992   4.045   2.565   2.835  3.8445 -2.2521  0.1331
  130PVA    H3821993   4.213   2.629   2.862 -0.7461 -0.6459  1.4799
  130PVA    C2021994   4.109   2.628   3.029 -0.4643  0.2756 -0.4318
  130PVA    H3921995   4.013   2.666   3.064  1.0082  5.4374 -1.1959
  130PVA     O721996   4.206   2.701   3.089 -0.4400  0.7228  0.6875
  130PVA    H4021997   4.286   2.651   3.111 -0.1527  1.6365  1.8080
  130PVA    C2121998   4.131   2.480   3.070  0.8740  0.5715  0.9792
  130PVA    H4121999   4.239   2.462   3.078  1.4168  1.7516 -2.3524
  130PVA    H4222000   4.106   2.414   2.986  2.5713 -2.6489  2.7798
  130PVA    C2222001   4.054   2.432   3.190  0.4799 -1.3918  0.1759
  130PVA    H4322002   4.106   2.460   3.283 -1.9766 -1.7870  1.7788
  130PVA    H4422003   3.953   2.473   3.184  2.2237  3.3264 -1.1865
  130PVA    C2322004   4.012   2.283   3.213 -0.5355 -1.1351  0.6989
  130PVA    H4522005   3.941   2.269   3.295 -1.6570 -3.2559 -0.5513
  130PVA     O822006   4.122   2.204   3.249 -0.1841 -0.8505  0.1404
  130PVA    H4622007   4.149   2.219   3.341 -0.1581  0.2394 -0.0260
  130PVA    C2422008   3.943   2.219   3.088 -0.2449 -1.0373  1.2382
  130PVA    H4722009   3.979   2.253   2.990  0.2797  0.1302  1.8134
  130PVA    H4822010   3.978   2.116   3.075  3.1707  0.1280  0.2623
  130PVA    C2522011   3.789   2.243   3.094  0.0683  0.1898 -1.1640
  130PVA    H4922012   3.776   2.352   3.095 -1.9895  0.0362  1.1537
  130PVA    H5022013   3.742   2.199   3.183 -1.1919 -2.1912 -2.8835
  130PVA    C2622014   3.726   2.188   2.960 -0.8161 -0.7782 -0.2766
  130PVA    H5122015   3.759   2.248   2.874 -0.1552  1.7887  1.6851
  130PVA     O922016   3.742   2.047   2.947  0.1003 -0.4187 -0.7938
  130PVA    H5222017   3.806   2.020   2.880 -2.1512 -6.0267 -1.2063
  130PVA    C2722018   3.575   2.226   2.953  0.2902  1.2499 -0.4155
  130PVA    H5322019   3.568   2.327   2.910  1.0302  1.0900 -0.9327
  130PVA    H5422020   3.550   2.249   3.057  1.7857 -0.7577  0.4352
  130PVA    C2822021   3.472   2.140   2.879  0.0396  0.5454 -0.8623
  130PVA    H5522022   3.372   2.174   2.912  0.3325 -0.1073  0.8383
  130PVA    H5622023   3.476   2.041   2.927 -4.4163  2.1255  3.7518
  130PVA    C2922024   3.473   2.155   2.719 -0.0285 -0.6336  1.3301
  130PVA    H5722025   3.385   2.095   2.694 -2.3631  3.5167 -1.6124
  130PVA    O1022026   3.426   2.286   2.690  0.2415  0.0739 -0.4596
  130PVA    H5822027   3.351   2.302   2.750  0.4877  0.9867 -0.3775
  130PVA    C3022028   3.598   2.107   2.636 -1.0767  0.2209 -0.0624
  130PVA    H5922029   3.686   2.137   2.694 -0.0138 -3.3357  0.4471
  130PVA    H6022030   3.625   2.001   2.623  1.1266  0.6938  0.2891
  130PVA    C3122031   3.585   2.156   2.494 -0.2332 -0.1852  0.4540
  130PVA    H6122032   3.570   2.263   2.477 -1.4128 -0.5094 -0.6844
  130PVA    H6222033   3.505   2.108   2.437 -0.9644  1.7457 -0.2140
  130PVA    C3222034   3.717   2.129   2.404 -0.6123  0.4511 -0.0257
  130PVA    H6322035   3.728   2.024   2.374  1.9206  0.7782 -0.4961
  130PVA    O1122036   3.836   2.152   2.472 -0.9529 -0.0485 -0.7046
  130PVA    H6422037   3.852   2.246   2.490  0.1287 -0.4279  0.4515
  130PVA    C3322038   3.699   2.209   2.282  0.0703  0.0172 -0.4263
  130PVA    H6522039   3.716   2.314   2.309  2.0605 -0.0147 -1.3772
  130PVA    H6622040   3.608   2.200   2.222 -0.7536  0.9096  0.6479
  130PVA    C3422041   3.811   2.201   2.186 -0.0740  0.1206  0.6933
  130PVA    H6722042   3.894   2.246   2.242 -1.1986  4.7076 -0.9683
  130PVA    H6822043   3.838   2.097   2.162 -0.4410  0.5059 -1.6099
  130PVA    C3522044   3.792   2.275   2.050 -1.3205 -1.5036  0.7684
  130PVA    H6922045   3.740   2.200   1.988  0.0599 -2.9612  1.3096
  130PVA    O1222046   3.922   2.305   1.999 -0.0902 -1.2757  0.1797
  130PVA    H7022047   3.942   2.400   1.993 -3.4992 -0.3448  1.3707
  130PVA    C3622048   3.703   2.406   2.046 -0.5238  0.8006  0.5656
  130PVA    H7122049   3.605   2.384   2.088  0.5483  0.0253  2.8234
  130PVA    H7222050   3.755   2.469   2.119 -2.2451  0.4768  2.1339
  130PVA    C3722051   3.701   2.485   1.913 -0.2550  0.2772  0.7486
  130PVA    H7322052   3.693   2.419   1.825 -1.7633  0.4569  0.7196
  130PVA    H7422053   3.800   2.526   1.887 -0.2673 -1.0118 -1.6678
  130PVA    C3822054   3.580   2.575   1.898 -0.8797 -0.6638 -0.8919
  130PVA    H7522055   3.598   2.623   1.801 -0.6480 -0.2826 -0.6606
  130PVA    O1322056   3.576   2.675   1.991  0.4501 -0.5601 -0.4233
  130PVA    H7622057   3.525   2.634   2.063  2.8810 -0.5891  1.4393
  130PVA    C3922058   3.445   2.512   1.864  0.4755  0.2192  0.8099
  130PVA    H7722059   3.400   2.454   1.946 -1.2650  0.4834  0.0682
  130PVA    H7822060   3.465   2.435   1.788  0.1048  4.2681 -3.8633
  130PVA    C4022061   3.336   2.628   1.829  0.3860 -0.5810 -0.9429
  130PVA    H7922062   3.326   2.692   1.918 -0.9863  0.0483 -1.5216
  130PVA    H8022063   3.379   2.704   1.761  0.1664  1.0846  0.7064
  130PVA    C4122064   3.195   2.595   1.787  0.8634 -0.1161  0.7558
  130PVA    H8122065   3.197   2.589   1.677  0.9442  4.7910  0.2675
  130PVA    O1422066   3.139   2.484   1.854  0.2360 -0.0412 -0.6228
  130PVA    H8222067   3.134   2.520   1.944  0.4738  0.6088 -0.8635
  130PVA    C4222068   3.090   2.718   1.801 -1.4590 -0.3788 -0.0138
  130PVA    H8322069   3.136   2.781   1.878  2.5992 -0.8191 -1.8445
  130PVA    H8422070   3.103   2.785   1.715  1.0703 -0.6762  0.0734
  130PVA    C4322071   2.943   2.688   1.800 -0.0431  0.5786 -0.2373
  130PVA    H8522072   2.929   2.594   1.745  1.7609  1.5463 -2.5471
  130PVA    H8622073   2.912   2.671   1.903  1.2335  3.1528  0.6732
  130PVA    C4422074   2.842   2.783   1.728 -0.7710 -0.0686 -0.3625
  130PVA    H8722075   2.899   2.822   1.642  1.8870 -1.2404  0.7610
  130PVA    O1522076   2.808   2.874   1.826 -0.3064 -0.5273  0.2765
  130PVA    H8822077   2.884   2.931   1.848 -2.6992  2.5507  1.2967
  130PVA    C4522078   2.708   2.729   1.668  0.2672  0.6292 -0.1203
  130PVA    H8922079   2.698   2.769   1.566 -1.8254  2.1005  0.5787
  130PVA    H9022080   2.729   2.622   1.680  1.6330  0.9583  0.6351
  130PVA    C4622081   2.580   2.760   1.748 -0.2862 -0.7989 -0.4352
  130PVA    H9122082   2.595   2.744   1.856 -0.4523 -1.1415 -0.4638
  130PVA    H9222083   2.567   2.869   1.748  0.3922 -0.6010  2.7235
  130PVA    C4722084   2.449   2.709   1.689 -0.5222  0.4797 -0.3237
  130PVA    H9322085   2.461   2.615   1.633 -2.6184 -1.0682  1.6512
  130PVA    O1622086   2.355   2.685   1.804  0.1876  0.0610  0.5310
  130PVA    H9422087   2.412   2.697   1.881 -2.8357 -1.9713  3.3717
  130PVA    C4822088   2.373   2.804   1.593  0.2591 -0.8466 -0.2266
  130PVA    H9522089   2.440   2.842   1.515  1.6856 -1.0220  0.8684
  130PVA    H9622090   2.353   2.903   1.634  1.6710  1.0932 -3.7435
  130PVA    C4922091   2.248   2.734   1.536 -0.4234  1.1445 -0.3333
  130PVA    H9722092   2.269   2.638   1.487  0.0683  0.9119  0.3245
  130PVA    H9822093   2.182   2.693   1.614 -1.5150  1.1882 -1.2079
  130PVA    C5022094   2.141   2.816   1.462  0.3867 -0.9120  0.0335
  130PVA    H9922095   2.093   2.858   1.552 -0.3111  1.4059 -1.3294
  130PVA    O1722096   2.180   2.928   1.396 -0.0157 -0.4893  0.0295
  130PVA   H10022097   2.171   2.999   1.463  1.1441 -2.0542  1.9476
  130PVA    C5122098   2.043   2.732   1.376  1.3516  0.2707 -0.0557
  130PVA   H10122099   2.097   2.660   1.313 -1.3993 -3.0382  1.0036
  130PVA   H10222100   1.991   2.665   1.446 -2.9594  3.7040  0.4880
  131PVA     C122101   3.692   1.143   1.435  0.5029 -0.2918 -0.2650
  131PVA     H122102   3.785   1.157   1.492 -1.4784 -1.5965  3.6731
  131PVA     H222103   3.674   1.035   1.434 -1.3277 -0.0145 -0.6604
  131PVA     C222104   3.725   1.193   1.287  0.1488 -0.6590  0.1392
  131PVA     H322105   3.627   1.176   1.241  1.2256  1.9082 -3.7307
  131PVA     O122106   3.736   1.333   1.287  0.8977 -0.2954  0.0265
  131PVA     H422107   3.686   1.353   1.206  0.5942 -0.9485  0.0447
  131PVA     C322108   3.833   1.117   1.188  0.3623  0.4974  0.4722
  131PVA     H522109   3.818   1.021   1.239 -2.8587  2.4236  3.6344
  131PVA     H622110   3.929   1.153   1.227  0.7800  1.0795 -1.0193
  131PVA     C422111   3.856   1.129   1.022  0.8292 -0.8566 -0.1183
  131PVA     H722112   3.788   1.048   0.993 -1.6298  0.9398  0.2683
  131PVA     H822113   3.809   1.223   0.990  1.5192  0.2723  1.9790
  131PVA     C522114   3.996   1.117   0.946  0.3061  0.3804  0.6197
  131PVA     H922115   4.033   1.218   0.967 -1.8339  1.4116 -0.1666
  131PVA     O222116   4.073   1.025   0.995 -0.4154  0.8015 -0.6812
  131PVA    H1022117   4.147   0.999   0.937 -1.5361  0.1157 -1.8513
  131PVA     C622118   3.999   1.092   0.781  0.7264  0.9793  0.2851
  131PVA    H1122119   3.892   1.106   0.759  0.8597  2.0347  0.2864
  131PVA    H1222120   4.021   1.192   0.744 -0.3655  0.7322 -1.1356
  131PVA     C722121   4.083   0.993   0.677 -0.7265 -1.0066 -0.0520
  131PVA    H1322122   4.070   0.889   0.710  5.0163 -1.8145  0.6500
  131PVA    H1422123   4.186   1.011   0.708 -1.6628 -0.9959  3.5576
  131PVA     C822124   4.070   0.998   0.523  0.1894  1.0612  0.0294
  131PVA    H1522125   3.964   1.010   0.495 -0.1464  0.4540  0.9572
  131PVA     O322126   4.127   1.106   0.495  0.8947  0.1444  0.1667
  131PVA    H1622127   4.212   1.128   0.538  1.6872 -2.7301  0.2491
  131PVA     C922128   4.115   0.876   0.426 -0.4310 -0.3589 -1.0010
  131PVA    H1722129   4.044   0.793   0.422  1.9372 -2.5936  0.2143
  131PVA    H1822130   4.203   0.829   0.472 -0.2469  1.0453  0.1534
  131PVA    C1022131   4.141   0.893   0.266 -1.0350  0.2884 -0.9430
  131PVA    H1922132   4.072   0.957   0.210  0.4296  4.6553  1.7448
  131PVA    H2022133   4.229   0.959   0.269 -1.0365  0.5541 -3.8538
  131PVA    C1122134   4.179   0.787   0.151  0.2940  0.8675 -0.1296
  131PVA    H2122135   4.223   0.691   0.183  4.0732  1.8077 -1.9619
  131PVA     O422136   4.062   0.727   0.100  0.4356  0.2826  1.0080
  131PVA    H2222137   4.080   0.648   0.046  1.2901  1.7664 -0.9980
  131PVA    C1222138   4.253   0.819   0.007  0.1513  0.4705 -0.2530
  131PVA    H2322139   4.259   0.928   8.092 -0.3257  0.4711 -0.4917
  131PVA    H2422140   4.350   0.790   0.049 -0.7583  1.2780  2.5639
  131PVA    C1322141   4.225   0.740   7.962  0.5878 -0.1518 -0.4259
  131PVA    H2522142   4.121   0.730   7.926  1.8078  1.5886 -5.2535
  131PVA    H2622143   4.253   0.639   7.994  0.9417  1.1220  3.9478
  131PVA    C1422144   4.300   0.783   7.817  0.3443 -0.8145 -0.4500
  131PVA    H2722145   4.313   0.892   7.820  1.9709 -1.0080  0.3934
  131PVA     O522146   4.426   0.734   7.834 -0.2696  0.4048  0.6567
  131PVA    H2822147   4.422   0.643   7.799  3.3801  0.9083 -1.6031
  131PVA    C1522148   4.267   0.752   7.658  0.7293 -0.1405 -0.4634
  131PVA    H2922149   4.189   0.677   7.676 -2.0033  2.7704  0.9255
  131PVA    H3022150   4.215   0.839   7.615  3.2614  0.5329 -2.3234
  131PVA    C1622151   4.374   0.711   7.539 -0.1779  0.5020 -0.5235
  131PVA    H3122152   4.453   0.782   7.565  0.2417 -0.3854  0.7011
  131PVA    H3222153   4.432   0.619   7.554 -2.7791 -1.7652 -3.1352
  131PVA    C1722154   4.328   0.690   7.383  0.6521 -1.0472 -0.4612
  131PVA    H3322155   4.295   0.784   7.337 -1.3781 -0.0090  2.7924
  131PVA     O622156   4.201   0.621   7.364  0.1517  1.1397 -0.0455
  131PVA    H3422157   4.219   0.535   7.323 -1.0382  0.1623  1.3916
  131PVA    C1822158   4.423   0.655   7.258  0.8094  0.3183  0.2293
  131PVA    H3522159   4.503   0.731   7.262  0.0750  1.0948  0.3523
  131PVA    H3622160   4.462   0.558   7.293  0.6489  0.8600  1.9981
  131PVA    C1922161   4.364   0.654   7.094 -0.7464 -0.8939 -0.8348
  131PVA    H3722162   4.316   0.749   7.071 -2.0097 -1.0571  0.9018
  131PVA    H3822163   4.280   0.585   7.080  0.7474 -2.4049 -3.1457
  131PVA    C2022164   4.463   0.620   6.971  0.4230  1.6088 -0.1243
  131PVA    H3922165   4.543   0.694   6.986 -1.9267  4.3230 -0.1223
  131PVA     O722166   4.501   0.485   6.966  0.3496  0.7845 -1.3461
  131PVA    H4022167   4.559   0.484   6.887  0.9118 -1.8565 -0.9973
  131PVA    C2122168   4.411   0.636   6.819  0.1375  0.3306  0.8714
  131PVA    H4122169   4.352   0.549   6.788  5.6354 -2.4038 -3.7377
  131PVA    H4222170   4.336   0.715   6.835 -2.6818 -2.4514  2.4774
  131PVA    C2222171   4.516   0.644   6.697 -0.9400  0.9379  0.2525
  131PVA    H4322172   4.605   0.585   6.722  0.6609  2.5670 -1.2759
  131PVA    H4422173   4.559   0.745   6.693  0.5680  0.3785  1.0408
  131PVA    C2322174   4.459   0.600   6.548 -0.0692  0.8939 -0.2027
  131PVA    H4522175   4.363   0.651   6.532 -2.0099 -2.9185 -2.0396
  131PVA     O822176   4.403   0.469   6.553 -0.5301 -0.9251  0.6164
  131PVA    H4622177   4.363   0.462   6.642 -2.5147 -2.5266 -0.3076
  131PVA    C2422178   4.553   0.613   6.407  0.5640  0.1377 -0.1249
  131PVA    H4722179   4.582   0.718   6.410  0.9826  0.0113  1.3687
  131PVA    H4822180   4.653   0.570   6.419  1.3441  1.4117 -1.8020
  131PVA    C2522181   4.487   0.591   6.259  0.5417 -0.7109 -0.0006
  131PVA    H4922182   4.445   0.491   6.271  3.3021 -1.6021  6.1508
  131PVA    H5022183   4.401   0.656   6.240 -0.9246 -2.0600  1.6814
  131PVA    C2622184   4.574   0.613   6.123 -0.8790  0.5099  0.2132
  131PVA    H5122185   4.618   0.515   6.105 -1.5686  0.5035 -1.6315
  131PVA     O922186   4.696   0.693   6.147 -0.8577 -0.4113 -0.7904
  131PVA    H5222187   4.668   0.783   6.120  2.1095  0.7771 -0.2822
  131PVA    C2722188   4.498   0.663   5.992 -0.1156  0.2385 -0.3101
  131PVA    H5322189   4.472   0.767   6.015 -5.0932 -0.5014 -1.3642
  131PVA    H5422190   4.401   0.611   5.994  0.2481 -0.5653 -1.7091
  131PVA    C2822191   4.555   0.674   5.848  0.2214 -1.3157  0.3662
  131PVA    H5522192   4.664   0.689   5.855  0.1234  0.0584 -0.6485
  131PVA    H5622193   4.559   0.572   5.807  0.6987 -0.9971 -0.4067
  131PVA    C2922194   4.493   0.779   5.742 -0.1215 -0.4223  0.5655
  131PVA    H5722195   4.384   0.771   5.752 -0.3161 -1.2808 -1.5445
  131PVA    O1022196   4.552   0.909   5.754 -0.0737 -0.5376 -0.2716
  131PVA    H5822197   4.484   0.964   5.713 -0.1010 -2.2773 -2.7802
  131PVA    C3022198   4.504   0.744   5.588 -0.2679 -1.1282 -0.6268
  131PVA    H5922199   4.535   0.639   5.590 -1.6722 -1.6060  2.8852
  131PVA    H6022200   4.585   0.804   5.545 -1.8704  0.5783 -1.4232
  131PVA    C3122201   4.378   0.759   5.482  0.6219 -1.1587  0.4153
  131PVA    H6122202   4.361   0.866   5.461  2.3840 -1.0479 -0.6471
  131PVA    H6222203   4.286   0.752   5.542 -1.6364  3.2419 -2.0205
  131PVA    C3222204   4.374   0.694   5.326 -0.0606  0.0701 -0.5698
  131PVA    H6322205   4.429   0.599   5.333  2.3212  1.3942 -0.3091
  131PVA    O1122206   4.457   0.763   5.231  0.0520 -0.9088 -0.3796
  131PVA    H6422207   4.480   0.844   5.279  1.0348 -2.0306  1.1133
  131PVA    C3322208   4.243   0.654   5.240 -0.8478  0.5454 -0.6512
  131PVA    H6522209   4.198   0.585   5.312 -0.8030  0.2714 -0.8852
  131PVA    H6622210   4.161   0.722   5.216  2.5355  3.9370 -4.1073
  131PVA    C3422211   4.251   0.567   5.096 -0.8576 -0.0518 -0.7034
  131PVA    H6722212   4.290   0.628   5.014 -5.9788  1.5000 -2.3744
  131PVA    H6822213   4.329   0.494   5.119 -2.3206 -0.4922  3.8101
  131PVA    C3522214   4.114   0.489   5.042 -0.6460  0.0507 -0.0249
  131PVA    H6922215   4.074   0.413   5.110 -3.7665  1.5387 -0.0094
  131PVA    O1222216   4.014   0.582   5.016  0.8666  0.1984  0.1867
  131PVA    H7022217   4.032   0.639   4.939  1.0262 -2.1217 -1.5988
  131PVA    C3622218   4.122   0.413   4.903 -0.0881  0.2106  0.1786
  131PVA    H7122219   4.170   0.487   4.838 -0.5161  1.5582  1.3331
  131PVA    H7222220   4.208   0.345   4.901  2.3545  3.1153 -1.0335
  131PVA    C3722221   3.992   0.339   4.829 -0.7266  0.0897 -0.6111
  131PVA    H7322222   3.911   0.413   4.827 -0.2633  0.7535  1.7934
  131PVA    H7422223   3.968   0.261   4.902  2.3451  2.3999  3.2636
  131PVA    C3822224   4.003   0.280   4.676  0.5087  0.2103 -0.7232
  131PVA    H7522225   4.108   0.303   4.653  0.2570  2.2716  0.0230
  131PVA    O1322226   3.937   0.355   4.574  0.9079  0.2150 -1.3261
  131PVA    H7622227   3.971   0.310   4.495  0.6946  0.4924 -1.5788
  131PVA    C3922228   3.951   0.128   4.650  1.0979  0.5021  0.6739
  131PVA    H7722229   3.846   0.128   4.683  0.7990 -4.2003  0.4533
  131PVA    H7822230   4.010   0.066   4.719  1.7378  1.9559  1.4682
  131PVA    C4022231   3.956   0.042   4.502 -0.5040  0.1597  0.1651
  131PVA    H7922232   3.879   0.099   4.448  3.4933  4.1565 -2.0352
  131PVA    H8022233   4.050   0.079   4.457  0.3901 -0.3713  1.5441
  131PVA    C4122234   3.912   7.573   4.463  0.1207  0.2015  0.5360
  131PVA    H8122235   4.012   7.531   4.445  0.1599  1.3428 -2.6302
  131PVA    O1422236   3.870   7.525   4.590 -0.2793  0.5623 -0.1378
  131PVA    H8222237   3.953   7.546   4.636  1.7109 -2.2723 -2.0759
  131PVA    C4222238   3.808   7.528   4.354  0.4908 -1.0327  0.3897
  131PVA    H8322239   3.719   7.591   4.367  1.0983 -0.2554  0.9420
  131PVA    H8422240   3.852   7.575   4.265 -0.3095 -0.3145  0.3591
  131PVA    C4322241   3.770   7.369   4.312 -0.4765 -0.4485 -0.2086
  131PVA    H8522242   3.740   7.315   4.402  0.4403  2.1071  1.7705
  131PVA    H8622243   3.869   7.325   4.293 -0.1871 -1.0965  2.3700
  131PVA    C4422244   3.675   7.314   4.185 -0.0035  0.7586 -1.0516
  131PVA    H8722245   3.680   7.386   4.102 -1.4340  0.5207 -1.3778
  131PVA    O1522246   3.544   7.301   4.231 -0.5669 -0.1194  0.1185
  131PVA    H8822247   3.500   7.341   4.154 -1.2647  0.5606  0.8476
  131PVA    C4522248   3.709   7.174   4.112  0.0914  0.4536 -0.2905
  131PVA    H8922249   3.703   7.107   4.198  0.9712 -2.5806 -2.4098
  131PVA    H9022250   3.816   7.187   4.094 -0.3132  4.1723 -0.7320
  131PVA    C4622251   3.634   7.108   3.981  0.7700  0.4486 -0.4404
  131PVA    H9122252   3.541   7.072   4.027  2.0263 -0.2209  1.7481
  131PVA    H9222253   3.617   7.195   3.917  1.4629 -0.1904 -1.5224
  131PVA    C4722254   3.670   6.972   3.903 -0.2884 -1.2824  0.3918
  131PVA    H9322255   3.708   7.017   3.810 -2.1785  0.1527  0.2641
  131PVA    O1622256   3.779   6.900   3.964  0.0497  0.4912 -1.0020
  131PVA    H9422257   3.857   6.958   3.961  1.2559 -0.9018  1.1396
  131PVA    C4822258   3.550   6.882   3.847  1.0926  0.0350 -0.0086
  131PVA    H9522259   3.492   6.867   3.939  0.1695 -6.1999 -1.1470
  131PVA    H9622260   3.472   6.938   3.794 -0.3766  0.9829  2.9330
  131PVA    C4922261   3.551   6.730   3.778 -0.1783 -1.2538 -0.3633
  131PVA    H9722262   3.654   6.701   3.757  0.9812  4.4025 -4.9638
  131PVA    H9822263   3.539   6.673   3.872 -0.4690  1.9710  1.7332
  131PVA    C5022264   3.487   6.654   3.658 -0.1649  1.0043 -1.0514
  131PVA    H9922265   3.570   6.589   3.629 -1.0749 -0.7891  0.1426
  131PVA    O1722266   3.477   6.735   3.551 -0.6913 -0.3461  0.6352
  131PVA   H10022267   3.484   6.691   3.464 -0.2926  0.0575  0.4582
  131PVA    C5122268   3.364   6.547   3.652  0.6786 -0.2863 -0.0650
  131PVA   H10122269   3.311   6.542   3.748  1.3032 -2.7560  0.2339
  131PVA   H10222270   3.293   6.605   3.593  0.5816  1.4227  1.6165
  132PVA     C122271   2.538   2.787   0.655 -0.4246  0.3841 -0.7651
  132PVA     H122272   2.614   2.718   0.617 -1.7884 -0.1304 -2.7775
  132PVA     H222273   2.539   2.775   0.764  5.6265 -0.6430 -0.5750
  132PVA     C222274   2.571   2.934   0.627 -0.0134  0.5817 -0.6079
  132PVA     H322275   2.480   2.995   0.637  0.4924  2.0248 -3.6636
  132PVA     O122276   2.624   2.955   0.490  0.5936 -0.4355  0.5264
  132PVA     H422277   2.697   3.011   0.521  1.7731 -0.3209 -2.1805
  132PVA     C322278   2.686   2.996   0.713  0.4395 -0.0013 -0.1188
  132PVA     H522279   2.717   3.098   0.684 -0.2439  0.5145  0.8984
  132PVA     H622280   2.764   2.919   0.718 -0.2210 -0.6293  0.9178
  132PVA     C422281   2.628   3.026   0.859  0.5624 -0.2033 -0.3530
  132PVA     H722282   2.554   3.105   0.844  1.2850  0.4044 -0.8198
  132PVA     H822283   2.591   2.928   0.891  7.0728 -2.5834  1.6406
  132PVA     C522284   2.718   3.066   0.972  0.2440 -0.5603  0.1759
  132PVA     H922285   2.686   3.164   1.010  1.4683 -0.8110  1.9779
  132PVA     O222286   2.859   3.081   0.929 -0.1888  0.1909 -0.0666
  132PVA    H1022287   2.859   3.151   0.861 -1.0282  4.5341  3.9133
  132PVA     C622288   2.705   2.986   1.111 -1.1644 -0.5581  0.1857
  132PVA    H1122289   2.605   3.014   1.145 -0.8778  1.0460 -0.2131
  132PVA    H1222290   2.724   2.881   1.085 -0.2647 -0.8238  1.8114
  132PVA     C722291   2.803   3.025   1.225 -0.3481  0.9772  0.1268
  132PVA    H1322292   2.813   3.134   1.219  3.0345  0.6819 -2.2315
  132PVA    H1422293   2.903   2.983   1.211 -1.1136 -1.4740  1.4522
  132PVA     C822294   2.760   2.988   1.376  0.2590  0.8754 -0.3331
  132PVA    H1522295   2.699   2.897   1.365 -3.8127  3.2579  0.2949
  132PVA     O322296   2.880   2.955   1.437  0.1987  0.4312  0.0053
  132PVA    H1622297   2.912   2.866   1.415 -2.1663 -1.8009  4.1412
  132PVA     C922298   2.679   3.111   1.440  0.5013  0.4956 -0.4609
  132PVA    H1722299   2.597   3.083   1.506  0.3202  1.6389 -0.1759
  132PVA    H1822300   2.630   3.168   1.360 -0.8392  0.0777  0.0371
  132PVA    C1022301   2.778   3.211   1.519  0.0695  0.0065  0.5878
  132PVA    H1922302   2.810   3.164   1.613 -1.0154 -0.5043  0.7148
  132PVA    H2022303   2.860   3.228   1.449 -3.2647 -1.9900 -4.3346
  132PVA    C1122304   2.691   3.337   1.550  0.3444 -0.5010 -0.5795
  132PVA    H2122305   2.652   3.379   1.456  2.9886 -0.5731 -1.8204
  132PVA     O422306   2.580   3.305   1.640 -0.6106 -0.0119  0.8440
  132PVA    H2222307   2.506   3.368   1.630 -0.1124  1.1215  3.4813
  132PVA    C1222308   2.784   3.438   1.635 -0.1681  0.0316  0.6459
  132PVA    H2322309   2.733   3.464   1.729 -1.1222 -0.2366  0.2131
  132PVA    H2422310   2.873   3.383   1.666 -0.0902 -1.0979 -1.3973
  132PVA    C1322311   2.813   3.562   1.550  1.2216  0.1662 -0.0778
  132PVA    H2522312   2.882   3.530   1.471  1.5275  0.2122  0.1725
  132PVA    H2622313   2.718   3.583   1.498  0.0539  1.1192  2.2840
  132PVA    C1422314   2.866   3.679   1.630  0.1716  0.2653  0.4437
  132PVA    H2722315   2.795   3.698   1.711 -1.3280  2.0819 -1.1782
  132PVA     O522316   2.998   3.657   1.681 -0.6021  0.3167  0.6621
  132PVA    H2822317   3.041   3.591   1.624 -2.7711 -3.1155  2.6153
  132PVA    C1522318   2.858   3.799   1.521  0.2875  0.9985 -0.3004
  132PVA    H2922319   2.756   3.824   1.487  0.5536  2.3110 -0.1605
  132PVA    H3022320   2.906   3.758   1.431  0.8473 -0.6929  0.7244
  132PVA    C1622321   2.927   3.938   1.583  0.2466 -0.7060 -0.5887
  132PVA    H3122322   2.880   3.968   1.678 -0.3097 -0.6662 -0.8725
  132PVA    H3222323   3.031   3.909   1.599 -0.6558 -3.3283  1.0562
  132PVA    C1722324   2.944   4.069   1.497 -0.3085  0.4820  0.2328
  132PVA    H3322325   2.888   4.147   1.550 -0.5949  1.9293 -2.0791
  132PVA     O622326   2.869   4.070   1.376  1.0302 -0.3387  0.0989
  132PVA    H3422327   2.779   4.078   1.411  1.6634  0.2033  1.7218
  132PVA    C1822328   3.085   4.119   1.482 -1.1012  0.1875 -0.3951
  132PVA    H3522329   3.137   4.088   1.573 -2.7611 -1.6052 -0.0009
  132PVA    H3622330   3.128   4.060   1.400 -0.7231 -0.1359  0.0330
  132PVA    C1922331   3.117   4.265   1.440  0.6721 -0.3686  0.7684
  132PVA    H3722332   3.110   4.264   1.331  1.3475  2.2392  0.6373
  132PVA    H3822333   3.055   4.344   1.485  0.4124  1.1937 -2.1192
  132PVA    C2022334   3.246   4.306   1.478 -1.0887  0.3537  0.6175
  132PVA    H3922335   3.339   4.260   1.440  0.9126  5.1466 -1.0738
  132PVA     O722336   3.242   4.317   1.622 -0.0994  0.1408  0.6228
  132PVA    H4022337   3.223   4.232   1.667 -5.0859 -0.8907 -2.5877
  132PVA    C2122338   3.268   4.456   1.439 -0.3760  0.0221 -0.0548
  132PVA    H4122339   3.207   4.518   1.506 -2.1349 -2.9880  1.3124
  132PVA    H4222340   3.243   4.468   1.333  1.8849  0.4284 -0.6067
  132PVA    C2222341   3.414   4.502   1.452 -0.2286  0.8968 -0.6417
  132PVA    H4322342   3.472   4.428   1.394  2.1729  0.2903  2.3121
  132PVA    H4422343   3.425   4.604   1.413  3.1120  1.6590  1.8470
  132PVA    C2322344   3.478   4.496   1.601 -0.4209  0.4519 -0.1904
  132PVA    H4522345   3.514   4.393   1.605 -0.9157  0.2130 -1.5562
  132PVA     O822346   3.398   4.515   1.708 -0.0524 -0.3623 -0.6108
  132PVA    H4622347   3.332   4.444   1.701 -1.4290  0.9771 -2.0470
  132PVA    C2422348   3.606   4.585   1.631 -0.1287 -0.1625  0.3440
  132PVA    H4722349   3.693   4.569   1.566  1.2012  0.4889  1.9099
  132PVA    H4822350   3.576   4.688   1.607  0.1510 -0.4500 -1.4316
  132PVA    C2522351   3.665   4.592   1.766  0.1656 -1.1252 -1.4116
  132PVA    H4922352   3.635   4.690   1.805 -1.3128 -2.5655  1.3913
  132PVA    H5022353   3.631   4.504   1.822  0.5309 -0.7132 -0.5246
  132PVA    C2622354   3.822   4.596   1.772  0.2242 -0.7455 -0.3631
  132PVA    H5122355   3.874   4.514   1.722 -1.6136 -1.3716 -1.3549
  132PVA     O922356   3.856   4.716   1.711  0.3815  0.1818 -0.0628
  132PVA    H5222357   3.792   4.746   1.645 -3.2332 -4.7777  0.6858
  132PVA    C2722358   3.870   4.590   1.918  0.3265 -0.1973  0.4803
  132PVA    H5322359   3.845   4.488   1.948  1.2745 -0.3091  0.9180
  132PVA    H5422360   3.804   4.656   1.978  1.6058 -1.3418  3.3397
  132PVA    C2822361   4.032   4.619   1.947  0.0449  0.9104 -0.2377
  132PVA    H5522362   4.110   4.619   1.871  1.1803  2.8728  0.8279
  132PVA    H5622363   4.021   4.728   1.955  2.1418  1.2780 -1.7735
  132PVA    C2922364   4.079   4.589   2.094 -0.3434  0.2381  1.2774
  132PVA    H5722365   4.081   4.479   2.100 -1.4499  0.2640  2.4711
  132PVA    O1022366   3.989   4.632   2.196  0.1765  0.3600  0.4318
  132PVA    H5822367   3.910   4.586   2.164  2.0624 -1.7699 -1.4880
  132PVA    C3022368   4.213   4.653   2.124  0.5214  0.3093 -0.4404
  132PVA    H5922369   4.203   4.762   2.135 -2.0399  0.2125 -1.2124
  132PVA    H6022370   4.286   4.623   2.047  1.5553  0.8042  0.3114
  132PVA    C3122371   4.276   4.615   2.272  0.3042 -0.5784  0.5139
  132PVA    H6122372   4.329   4.523   2.246  0.8212  0.4029 -2.2983
  132PVA    H6222373   4.195   4.597   2.344 -4.4104  0.7356 -3.8392
  132PVA    C3222374   4.390   4.706   2.322 -0.2401  0.6651  0.1889
  132PVA    H6322375   4.436   4.659   2.410  1.7557  0.4215 -0.9106
  132PVA    O1122376   4.476   4.723   2.208 -0.1993  0.1615 -0.7252
  132PVA    H6422377   4.424   4.747   2.129 -1.8800 -3.6520 -0.9704
  132PVA    C3322378   4.340   4.848   2.369 -0.4156 -0.0725  0.8614
  132PVA    H6522379   4.245   4.870   2.320  0.0231 -2.1275 -1.0905
  132PVA    H6622380   4.414   4.924   2.344 -0.0915 -1.6114 -3.8773
  132PVA    C3422381   4.309   4.839   2.524 -1.7803 -0.5707  0.2715
  132PVA    H6722382   4.259   4.745   2.547  0.1702 -2.5282 -2.6876
  132PVA    H6822383   4.403   4.835   2.580  0.3574  3.0630 -2.6013
  132PVA    C3522384   4.234   4.959   2.580  0.9611 -0.3099  0.0544
  132PVA    H6922385   4.149   4.964   2.510  1.1711 -3.9135 -0.6567
  132PVA    O1222386   4.319   5.067   2.569  0.3070 -0.5909 -0.4192
  132PVA    H7022387   4.289   5.129   2.501 -2.6909 -2.2845 -0.7983
  132PVA    C3622388   4.176   4.939   2.724 -0.4651  0.2802  1.3757
  132PVA    H7122389   4.261   4.970   2.785 -1.2330  0.3834  2.4298
  132PVA    H7222390   4.156   4.833   2.745  1.7935 -0.0541  2.0302
  132PVA    C3722391   4.048   5.021   2.747  0.1574  0.4174  0.7435
  132PVA    H7322392   3.971   4.998   2.672 -0.3164 -0.3685  1.4536
  132PVA    H7422393   4.074   5.127   2.738  1.4841  0.2291  1.8700
  132PVA    C3822394   3.989   4.982   2.883 -0.2598  0.8938 -0.7885
  132PVA    H7522395   3.998   4.876   2.907 -0.5259  0.7598 -1.2653
  132PVA    O1322396   3.856   5.012   2.894  0.0739  0.5555  0.1908
  132PVA    H7622397   3.837   5.091   2.841 -4.5098 -1.6201 -1.9707
  132PVA    C3922398   4.062   5.065   2.989 -0.2171 -0.3891  0.1485
  132PVA    H7722399   4.074   5.174   2.984  2.3445 -0.3355  3.7275
  132PVA    H7822400   4.164   5.035   2.962 -0.2828 -1.1548  0.7163
  132PVA    C4022401   4.037   5.024   3.140 -0.1913 -0.1136 -0.4026
  132PVA    H7922402   3.979   4.932   3.125 -1.0121  0.2968  0.1931
  132PVA    H8022403   4.136   5.021   3.187 -0.3282 -1.3800 -0.1537
  132PVA    C4122404   3.954   5.126   3.228 -0.2631 -0.1773  1.6646
  132PVA    H8122405   4.010   5.221   3.225 -1.1695  0.4048 -1.9302
  132PVA    O1422406   3.956   5.078   3.363  0.0183 -0.3409 -0.3216
  132PVA    H8222407   3.909   4.993   3.352  3.0264 -2.1512 -0.3755
  132PVA    C4222408   3.807   5.158   3.180  0.1344 -1.2755 -0.7306
  132PVA    H8322409   3.745   5.067   3.176 -1.2594 -0.4181  0.5605
  132PVA    H8422410   3.801   5.198   3.078 -3.3009 -0.8559 -0.4859
  132PVA    C4322411   3.741   5.275   3.274  0.0559 -0.4693 -1.5393
  132PVA    H8522412   3.821   5.350   3.269 -2.0767  1.9012 -5.0651
  132PVA    H8622413   3.731   5.235   3.375  2.1460  0.8105 -0.7686
  132PVA    C4422414   3.602   5.321   3.231  0.2974 -0.1229  1.0043
  132PVA    H8722415   3.531   5.237   3.236 -0.9136  0.7108 -1.0262
  132PVA    O1522416   3.617   5.370   3.100  0.1907 -0.2940 -0.0750
  132PVA    H8822417   3.611   5.299   3.033  1.8839 -1.4990  0.9571
  132PVA    C4522418   3.556   5.442   3.331  0.8657  0.0569  0.6860
  132PVA    H8922419   3.511   5.390   3.417  1.5592  0.1351  1.0961
  132PVA    H9022420   3.643   5.500   3.363  2.0269 -1.3257  0.1189
  132PVA    C4622421   3.440   5.541   3.277 -0.9563  0.6173  0.6715
  132PVA    H9122422   3.481   5.593   3.189 -1.7874 -1.7101 -1.2066
  132PVA    H9222423   3.351   5.494   3.233 -1.1851  0.8657  0.8617
  132PVA    C4722424   3.386   5.648   3.377  1.0947 -0.9341  0.4676
  132PVA    H9322425   3.461   5.675   3.453  1.6238  2.0612 -0.9862
  132PVA    O1622426   3.289   5.566   3.445 -0.3587  0.2389 -0.9153
  132PVA    H9422427   3.248   5.598   3.527 -1.4969 -0.4192 -1.2050
  132PVA    C4822428   3.311   5.770   3.316 -0.6398 -0.5020  0.6523
  132PVA    H9522429   3.357   5.813   3.227 -1.0245  3.1228  2.0341
  132PVA    H9622430   3.213   5.737   3.281 -0.8671 -0.0581  0.8682
  132PVA    C4922431   3.282   5.894   3.409  0.1921  0.9878  0.3862
  132PVA    H9722432   3.364   5.958   3.373  4.2617 -3.3094  0.9532
  132PVA    H9822433   3.189   5.937   3.372  0.1534  0.2402 -0.3970
  132PVA    C5022434   3.291   5.900   3.559  0.1970  0.6713 -0.6145
  132PVA    H9922435   3.386   5.849   3.578  0.4857  1.8347  1.2389
  132PVA    O1722436   3.181   5.833   3.629 -1.0778  0.3990 -0.4803
  132PVA   H10022437   3.190   5.858   3.722  3.4266 -0.9530 -0.2833
  132PVA    C5122438   3.328   6.050   3.604  0.2264  0.3731 -0.1003
  132PVA   H10122439   3.381   6.058   3.700 -0.5200 -0.7051  0.4207
  132PVA   H10222440   3.409   6.081   3.536  2.4573  0.5389  2.4476
  133PVA     C122441   2.290   2.397   0.458  0.1276  1.1028 -0.4859
  133PVA     H122442   2.396   2.372   0.463 -0.7369 -2.9456  0.8731
  133PVA     H222443   2.233   2.327   0.521 -1.0827  1.8917 -0.6654
  133PVA     C222444   2.244   2.390   0.307 -0.8380 -0.7106  1.0470
  133PVA     H322445   2.171   2.471   0.300  1.2868  1.3783  1.9278
  133PVA     O122446   2.361   2.434   0.242  0.7415 -0.4036  0.3958
  133PVA     H422447   2.358   2.408   0.149  1.8159  1.9940 -0.4004
  133PVA     C322448   2.187   2.262   0.232  0.0473 -1.4241  0.1484
  133PVA     H522449   2.091   2.258   0.286 -0.2954 -1.5486 -0.4655
  133PVA     H622450   2.233   2.163   0.242  6.4572  0.9189 -1.7037
  133PVA     C422451   2.147   2.280   0.076 -1.4378 -0.7378 -0.4703
  133PVA     H722452   2.057   2.219   0.064  0.8568 -4.4870 -0.3336
  133PVA     H822453   2.140   2.386   0.047 -0.6438 -0.7997 -0.9069
  133PVA     C522454   2.242   2.204   8.075  0.5647  0.0685 -0.4771
  133PVA     H922455   2.271   2.104   0.012  2.8946  0.9306  0.2050
  133PVA     O222456   2.346   2.292   8.048 -0.0896  0.4640 -0.2354
  133PVA    H1022457   2.401   2.247   7.981 -1.8359 -1.4296 -0.4891
  133PVA     C622458   2.183   2.168   7.938  0.6391 -0.4088  0.0118
  133PVA    H1122459   2.111   2.248   7.916 -1.8965 -2.1460  1.3844
  133PVA    H1222460   2.116   2.081   7.936 -0.8910  0.7210 -0.1964
  133PVA     C722461   2.271   2.155   7.815  0.3667  0.1074  0.3731
  133PVA    H1322462   2.320   2.252   7.800  0.5344  0.3575  2.2868
  133PVA    H1422463   2.198   2.148   7.733 -0.2373  1.4899  0.7483
  133PVA     C822464   2.369   2.030   7.818  0.3302 -0.3040  0.1709
  133PVA    H1522465   2.315   1.939   7.789  0.8998  0.6783 -5.1025
  133PVA     O322466   2.431   2.026   7.951  0.6298  0.0048  1.0166
  133PVA    H1622467   2.484   1.944   7.954 -1.2441 -1.3763 -0.8663
  133PVA     C922468   2.465   2.040   7.703 -0.0022  0.4101 -1.2593
  133PVA    H1722469   2.528   2.130   7.716 -1.6917  1.2231  2.2442
  133PVA    H1822470   2.408   2.070   7.614 -1.1691  0.3179 -0.5647
  133PVA    C1022471   2.525   1.898   7.667 -0.9074 -0.4228  0.3030
  133PVA    H1922472   2.620   1.869   7.713 -0.2377 -1.1136 -1.4484
  133PVA    H2022473   2.447   1.825   7.693 -0.1476 -1.0725  0.7785
  133PVA    C1122474   2.546   1.889   7.512 -0.0187  0.6110 -0.4428
  133PVA    H2122475   2.572   1.986   7.468 -1.1404  2.0428  1.8720
  133PVA     O422476   2.436   1.828   7.459 -0.1172  0.3579  0.5965
  133PVA    H2222477   2.376   1.810   7.534 -0.2689 -0.9188  0.1760
  133PVA    C1222478   2.678   1.822   7.455 -0.1603 -0.9333  1.4520
  133PVA    H2322479   2.765   1.884   7.480 -0.5754  1.0013 -1.4487
  133PVA    H2422480   2.697   1.722   7.495 -2.7088 -1.0312  2.6673
  133PVA    C1322481   2.688   1.825   7.296  0.5792  0.2322 -0.4869
  133PVA    H2522482   2.617   1.901   7.262  0.6988  0.2882 -0.6119
  133PVA    H2622483   2.653   1.724   7.271  0.4989  0.5321 -1.6949
  133PVA    C1422484   2.824   1.858   7.228 -0.0951  0.5116  0.2807
  133PVA    H2722485   2.890   1.925   7.285  2.9908 -0.2169 -2.1523
  133PVA     O522486   2.883   1.740   7.213 -0.5221  0.3477  0.2143
  133PVA    H2822487   2.916   1.728   7.304 -1.1887 -5.2041  0.0443
  133PVA    C1522488   2.824   1.912   7.077 -0.1275 -0.0197 -0.2009
  133PVA    H2922489   2.898   1.992   7.086  0.9308 -0.6964 -2.2720
  133PVA    H3022490   2.735   1.973   7.061  1.2848  2.1981 -0.0343
  133PVA    C1622491   2.847   1.817   6.954 -0.2499 -0.7862  0.3617
  133PVA    H3122492   2.946   1.771   6.957 -0.1827 -0.5929  1.9102
  133PVA    H3222493   2.800   1.722   6.984 -1.1992 -0.2760  0.5462
  133PVA    C1722494   2.802   1.856   6.812  0.8256 -0.3807 -0.9541
  133PVA    H3322495   2.697   1.887   6.819 -1.9298 -7.9768  0.0093
  133PVA     O622496   2.889   1.969   6.790  0.0674 -0.9935 -0.4306
  133PVA    H3422497   2.973   1.923   6.774 -0.2787 -2.4296  1.3872
  133PVA    C1822498   2.825   1.749   6.699  0.7249 -0.1345 -0.0723
  133PVA    H3522499   2.931   1.747   6.672  0.1490 -0.5937 -2.4784
  133PVA    H3622500   2.796   1.654   6.745  1.3906 -0.1067  0.4274
  133PVA    C1922501   2.733   1.758   6.571  0.9166  0.2768  0.2048
  133PVA    H3722502   2.760   1.849   6.517  1.6964 -0.7451 -1.2183
  133PVA    H3822503   2.629   1.764   6.604  1.6117  0.7746  2.4532
  133PVA    C2022504   2.744   1.646   6.469 -0.3152 -1.4974 -0.4828
  133PVA    H3922505   2.682   1.692   6.391 -6.4242 -3.2875  2.6855
  133PVA     O722506   2.692   1.532   6.514  0.0154 -0.4364 -0.9842
  133PVA    H4022507   2.597   1.523   6.493 -0.6536  0.7789  1.0995
  133PVA    C2122508   2.896   1.617   6.433 -0.9509  0.2308 -0.1149
  133PVA    H4122509   2.949   1.580   6.522 -1.9472  2.2852  1.4429
  133PVA    H4222510   2.936   1.719   6.422 -0.4108 -0.1242 -1.7319
  133PVA    C2222511   2.922   1.522   6.304  0.0329 -0.0405 -0.1602
  133PVA    H4322512   2.844   1.445   6.294 -4.3476  2.7293  6.1723
  133PVA    H4422513   2.903   1.588   6.218 -2.0314  2.8231  2.2800
  133PVA    C2322514   3.056   1.439   6.313  0.0337  0.1625 -0.9355
  133PVA    H4522515   3.041   1.357   6.385  2.5684  1.6398  1.4594
  133PVA     O822516   3.171   1.508   6.362  0.7319 -0.0881 -0.2182
  133PVA    H4622517   3.242   1.442   6.367  2.8087  2.1205  1.8690
  133PVA    C2422518   3.088   1.370   6.180  1.3355  0.2205 -0.5091
  133PVA    H4722519   2.998   1.359   6.119  0.6687  0.5373  0.3808
  133PVA    H4822520   3.153   1.437   6.124  1.7585 -0.2150 -0.5430
  133PVA    C2522521   3.164   1.237   6.183 -0.1795  0.1096  1.3124
  133PVA    H4922522   3.099   1.169   6.239 -1.8606  1.3817  0.9839
  133PVA    H5022523   3.245   1.249   6.256  2.3593 -1.6454 -0.9942
  133PVA    C2622524   3.244   1.169   6.071 -1.3861 -0.0067 -0.2479
  133PVA    H5122525   3.320   1.127   6.138  0.7397 -0.0782 -2.5616
  133PVA     O922526   3.320   1.250   5.977 -0.1833  1.0351 -0.0181
  133PVA    H5222527   3.375   1.185   5.930 -1.7350 -1.0505  0.8704
  133PVA    C2722528   3.178   1.044   5.994 -0.4559 -0.1471 -0.2302
  133PVA    H5322529   3.072   1.073   5.994 -0.8514 -1.4947 -1.2175
  133PVA    H5422530   3.173   0.962   6.066  2.0384 -0.4847 -0.3546
  133PVA    C2822531   3.231   1.003   5.851 -0.3003  0.6079  0.0201
  133PVA    H5522532   3.236   1.075   5.769 -1.4266 -1.2138 -1.7390
  133PVA    H5622533   3.338   0.979   5.850  0.2053  2.6732 -0.2958
  133PVA    C2922534   3.150   0.879   5.785 -0.6400  0.8551 -0.2512
  133PVA    H5722535   3.105   0.926   5.696 -2.2950  3.5577  1.8486
  133PVA    O1022536   3.049   0.828   5.866 -0.3035 -0.6038  0.3780
  133PVA    H5822537   3.084   0.742   5.894 -2.3869 -1.8168 -0.5751
  133PVA    C3022538   3.249   0.763   5.742  1.2040  0.0204 -0.0750
  133PVA    H5922539   3.328   0.815   5.687  5.2811 -2.9321  2.4879
  133PVA    H6022540   3.288   0.725   5.837 -1.1368 -0.0292  0.9489
  133PVA    C3122541   3.167   0.652   5.656 -1.3199 -0.5324 -0.3918
  133PVA    H6122542   3.111   0.670   5.563  1.3942 -0.9521 -2.2306
  133PVA    H6222543   3.089   0.615   5.723 -2.6971  3.1003  0.2776
  133PVA    C3222544   3.258   0.535   5.605 -0.1666 -0.1828  0.4956
  133PVA    H6322545   3.342   0.580   5.550  1.0910  2.8962  4.4949
  133PVA    O1122546   3.182   0.436   5.519  0.0191 -0.0780 -0.4028
  133PVA    H6422547   3.105   0.404   5.570  0.8808  1.4300  2.0276
  133PVA    C3322548   3.322   0.463   5.720 -0.0210 -0.0585  0.2246
  133PVA    H6522549   3.248   0.436   5.796  2.0414 -0.2043  2.3189
  133PVA    H6622550   3.389   0.518   5.788 -1.1828  1.4864  0.1809
  133PVA    C3422551   3.405   0.331   5.674  0.4054 -0.0689  0.5946
  133PVA    H6722552   3.341   0.242   5.665 -0.6101  0.4993  1.7201
  133PVA    H6822553   3.443   0.356   5.575  2.0586 -1.6970  0.7596
  133PVA    C3522554   3.520   0.312   5.781  1.0150 -0.1473  0.1330
  133PVA    H6922555   3.556   0.415   5.796  0.2996  0.0136  0.8674
  133PVA    O1222556   3.450   0.250   5.893 -1.1189  0.2759  0.3980
  133PVA    H7022557   3.503   0.203   5.959 -0.3292 -0.9979 -1.0565
  133PVA    C3622558   3.649   0.232   5.751  0.9347 -0.2257 -0.4169
  133PVA    H7122559   3.622   0.126   5.749 -0.2788  0.0167  1.2908
  133PVA    H7222560   3.670   0.256   5.646  3.2818 -1.5567 -0.3313
  133PVA    C3722561   3.775   0.260   5.832 -0.7932 -0.2968  0.8577
  133PVA    H7322562   3.748   0.247   5.938 -0.1229 -0.9073  0.9548
  133PVA    H7422563   3.804   0.366   5.825 -1.0807 -0.2518  0.3075
  133PVA    C3822564   3.906   0.181   5.798  0.4770  0.3209 -0.0374
  133PVA    H7522565   3.934   0.221   5.700  1.1301  1.7542  0.7021
  133PVA    O1322566   3.894   0.038   5.778  0.7842 -1.1596  0.5460
  133PVA    H7622567   3.983   7.683   5.774  2.0764  1.5945 -2.0408
  133PVA    C3922568   4.018   0.216   5.897 -0.1169 -0.4851  1.1526
  133PVA    H7722569   4.019   0.147   5.982  2.2261 -1.3882  0.4787
  133PVA    H7822570   4.008   0.324   5.915  1.7258 -0.0407 -0.2362
  133PVA    C4022571   4.164   0.217   5.853 -0.1769 -0.4070 -0.6221
  133PVA    H7922572   4.186   0.122   5.802  3.9470  1.1496 -2.0913
  133PVA    H8022573   4.170   0.267   5.756  0.8814 -0.2897 -0.5034
  133PVA    C4122574   4.281   0.245   5.959  0.2732  0.2918 -0.1953
  133PVA    H8122575   4.276   0.153   6.018 -1.8347 -0.5095 -1.4901
  133PVA    O1422576   4.240   0.360   6.039 -0.1811 -0.1020 -0.3780
  133PVA    H8222577   4.161   0.328   6.085  0.7686  0.2004  1.5446
  133PVA    C4222578   4.415   0.265   5.883  1.7172  0.8619  0.2274
  133PVA    H8322579   4.420   0.198   5.796  1.2509 -0.5974  1.2823
  133PVA    H8422580   4.419   0.365   5.838  0.5698  1.7240  1.9387
  133PVA    C4322581   4.530   0.244   5.979  0.9259  1.1030 -0.1113
  133PVA    H8522582   4.530   0.151   6.038  0.8349  0.2358 -1.4118
  133PVA    H8622583   4.506   0.318   6.055  1.5005  1.2905 -0.1129
  133PVA    C4422584   4.669   0.290   5.925 -0.9124 -0.7533  0.2988
  133PVA    H8722585   4.656   0.392   5.887  5.2123  0.4794  0.5053
  133PVA    O1522586   4.761   0.295   6.035 -0.3828  0.2315 -0.1743
  133PVA    H8822587   4.830   0.359   6.009  1.5228 -2.2618 -1.7710
  133PVA    C4522588   4.727   0.202   5.811 -0.7204 -1.1040  0.5393
  133PVA    H8922589   4.652   0.171   5.737 -1.4602  3.5401 -0.9973
  133PVA    H9022590   4.773   0.104   5.828 -0.7769 -0.6031  4.4093
  133PVA    C4622591   4.831   0.286   5.729 -0.0827 -1.1115 -0.2491
  133PVA    H9122592   4.775   0.377   5.706  4.1700  1.6835 -0.5537
  133PVA    H9222593   4.916   0.307   5.795  0.4079 -0.5992 -1.0328
  133PVA    C4722594   4.892   0.222   5.602  0.3755  0.3032  0.6918
  133PVA    H9322595   4.823   0.209   5.518  1.5846 -2.0962 -0.0357
  133PVA    O1622596   4.926   0.094   5.648  0.0095 -0.5138  0.5056
  133PVA    H9422597   4.856   0.063   5.707  0.5920 -3.0044  0.0210
  133PVA    C4822598   5.018   0.294   5.549 -0.6343 -0.5233 -1.0008
  133PVA    H9522599   4.984   0.398   5.535  1.4681  0.2077 -1.0010
  133PVA    H9622600   5.102   0.304   5.617  0.5042  0.4535 -2.4869
  133PVA    C4922601   5.055   0.255   5.403  0.2412  0.7862  0.1316
  133PVA    H9722602   5.069   0.146   5.401 -1.3931  0.5546  0.0291
  133PVA    H9822603   4.963   0.276   5.347 -0.9555 -2.1404  0.8079
  133PVA    C5022604   5.168   0.321   5.317  0.3582  0.5584 -0.8148
  133PVA    H9922605   5.251   0.350   5.383  1.0682  2.0436 -2.2885
  133PVA    O1722606   5.127   0.442   5.273  0.6425  0.7855  0.8672
  133PVA   H10022607   5.195   0.490   5.222  0.5179 -0.9004 -0.9926
  133PVA    C5122608   5.190   0.230   5.186 -0.8846 -0.4839 -1.5298
  133PVA   H10122609   5.112   0.246   5.110  0.5997  5.4454 -2.3170
  133PVA   H10222610   5.173   0.124   5.209 -1.9994 -0.6231 -2.8148
  134PVA     C122611   2.554   5.863   3.184  0.6126 -0.0248  0.0734
  134PVA     H122612   2.585   5.759   3.201 -2.0560 -1.4426 -2.7405
  134PVA     H222613   2.579   5.917   3.276  1.3819  3.2099 -1.8816
  134PVA     C222614   2.395   5.865   3.172 -0.8274  0.0966 -0.2720
  134PVA     H322615   2.361   5.766   3.204  1.3545 -0.8413 -0.6834
  134PVA     O122616   2.341   5.970   3.258 -0.1039  0.1398 -0.0361
  134PVA     H422617   2.312   5.928   3.341  0.4145  1.3982  0.8042
  134PVA     C322618   2.325   5.890   3.034 -0.6135 -0.0905 -0.8646
  134PVA     H522619   2.345   5.829   2.945 -1.2547  1.2684 -1.9826
  134PVA     H622620   2.355   5.989   2.998 -0.8950  1.8625  3.5840
  134PVA     C422621   2.168   5.891   3.031  0.1675 -0.5099 -0.1206
  134PVA     H722622   2.128   5.972   3.092  5.5967  2.9079 -0.4350
  134PVA     H822623   2.136   5.806   3.093  0.4375  0.9871  2.2331
  134PVA     C522624   2.092   5.891   2.901  0.3249  0.4614  0.6858
  134PVA     H922625   2.118   5.796   2.854  0.0626 -0.1274  1.7074
  134PVA     O222626   2.128   5.998   2.824 -0.4497 -0.4393 -0.9205
  134PVA    H1022627   2.223   6.004   2.805 -0.2631  0.4914  0.1734
  134PVA     C622628   1.945   5.884   2.917  1.5506 -0.8826  0.1086
  134PVA    H1122629   1.910   5.967   2.979  1.7508 -1.8919  1.6370
  134PVA    H1222630   1.920   5.790   2.970 -1.7129  0.0833  0.5049
  134PVA     C722631   1.855   5.872   2.798 -0.3226 -0.6670 -0.8669
  134PVA    H1322632   1.908   5.955   2.749  1.4092 -1.4472 -0.3852
  134PVA    H1422633   1.889   5.780   2.750 -0.8307 -0.0463 -2.4717
  134PVA     C822634   1.702   5.888   2.823 -1.3989 -0.3426 -0.9504
  134PVA    H1522635   1.708   5.975   2.889  2.0385  1.2762 -3.0937
  134PVA     O322636   1.653   5.762   2.880  0.2277  1.1186  0.4175
  134PVA    H1622637   1.557   5.774   2.885  0.4568  4.4933 -0.5503
  134PVA     C922638   1.620   5.915   2.693  0.2287  0.8023 -0.8866
  134PVA    H1722639   1.681   5.948   2.607  2.4154 -1.3466 -0.2846
  134PVA    H1822640   1.589   5.816   2.659  4.1855 -0.6469 -0.7762
  134PVA    C1022641   1.488   5.989   2.720 -0.3143 -0.2081  0.9890
  134PVA    H1922642   1.515   6.064   2.795  5.2210  1.8042 -2.4110
  134PVA    H2022643   1.458   6.042   2.629  1.8830  2.6818  1.8209
  134PVA    C1122644   1.377   5.897   2.765  0.5541  0.0457 -0.9748
  134PVA    H2122645   1.390   5.801   2.713  1.7054  1.7863 -4.1170
  134PVA     O422646   1.387   5.869   2.911  1.0094 -0.2098 -0.1220
  134PVA    H2222647   1.314   5.903   2.965  1.2443 -1.5219  1.0627
  134PVA    C1222648   1.231   5.947   2.734  1.3361 -1.3007  0.0470
  134PVA    H2322649   1.225   5.994   2.635  0.2380 -2.4380 -0.4322
  134PVA    H2422650   1.230   6.032   2.804 -1.2447  0.1474 -1.5782
  134PVA    C1322651   1.108   5.866   2.756  0.0223  1.0831  0.2507
  134PVA    H2522652   1.117   5.788   2.832 -3.0617  1.8161  1.5466
  134PVA    H2622653   1.079   5.822   2.660 -0.7734  3.9603 -0.9511
  134PVA    C1422654   0.976   5.935   2.799  0.1421 -0.6942  0.1229
  134PVA    H2722655   1.007   5.982   2.893  2.6275 -1.5789 -0.1932
  134PVA     O522656   0.955   6.028   2.683 -0.0798 -1.0069  0.5438
  134PVA    H2822657   0.882   5.985   2.636  1.7146 -0.9109 -2.5543
  134PVA    C1522658   0.854   5.842   2.806 -0.1180 -0.6519  0.4821
  134PVA    H2922659   0.874   5.758   2.873 -3.2266  0.4860  3.1267
  134PVA    H3022660   0.844   5.778   2.718  4.6341 -2.0510  0.6707
  134PVA    C1622661   0.717   5.916   2.855  0.3130  1.0057 -0.1126
  134PVA    H3122662   0.703   6.022   2.828 -2.3608  0.8520  0.3673
  134PVA    H3222663   0.716   5.906   2.964 -1.7466  0.6055 -0.1145
  134PVA    C1722664   0.580   5.859   2.823 -0.7249  0.4506  0.0915
  134PVA    H3322665   0.573   5.758   2.865 -0.5635  0.9585  1.3841
  134PVA     O622666   0.567   5.845   2.684  0.4459 -0.0974  0.0239
  134PVA    H3422667   0.505   5.774   2.662  2.8821 -2.7784  1.1277
  134PVA    C1822668   0.466   5.949   2.895 -0.2463  1.5879  1.1945
  134PVA    H3522669   0.450   5.883   2.981  2.2802 -1.3369 -0.3591
  134PVA    H3622670   0.511   6.039   2.939  0.3215  2.9234 -1.8259
  134PVA    C1922671   0.338   5.984   2.810 -0.4317 -0.5303  0.4382
  134PVA    H3722672   0.354   6.050   2.724  2.0749  1.5530  2.3743
  134PVA    H3822673   0.312   5.881   2.782  1.7958 -0.2563 -3.3792
  134PVA    C2022674   0.225   6.031   2.903  0.9817  0.5289  0.1157
  134PVA    H3922675   0.248   6.134   2.930  0.3371  0.7375 -0.1042
  134PVA     O722676   0.220   5.967   3.027  0.5311 -0.3145  0.1842
  134PVA    H4022677   0.144   6.008   3.074  0.8761  1.4945 -0.7344
  134PVA    C2122678   0.078   6.014   2.837  0.6863  0.2826  0.1123
  134PVA    H4122679   0.054   5.907   2.837 -0.6697  0.4992  2.9192
  134PVA    H4222680   0.086   6.043   2.732  1.2688 -1.8457 -0.4915
  134PVA    C2222681   7.733   6.111   2.892 -0.1354 -0.2382 -0.4080
  134PVA    H4322682   7.737   6.212   2.849  0.1183  0.3539  0.9236
  134PVA    H4422683   7.648   6.082   2.831 -1.1118  2.8332 -0.6726
  134PVA    C2322684   7.674   6.114   3.032  0.4519 -0.0708 -0.6978
  134PVA    H4522685   7.652   6.012   3.067  4.1852 -1.1239 -0.9840
  134PVA     O822686   7.747   6.190   3.118 -0.9354  0.3500 -0.1469
  134PVA    H4622687   7.732   6.279   3.081 -1.7433 -0.0501 -0.8271
  134PVA    C2422688   7.527   6.182   3.037  0.1407  1.6038 -0.1569
  134PVA    H4722689   7.464   6.163   2.949  1.8147  0.5519 -1.2010
  134PVA    H4822690   7.534   6.291   3.029 -0.2217  1.5986 -0.5995
  134PVA    C2522691   7.450   6.125   3.163 -0.1967 -0.9764 -1.2133
  134PVA    H4922692   7.513   6.104   3.251 -2.9629 -1.0236  0.8685
  134PVA    H5022693   7.399   6.031   3.140 -4.6412  0.8046  0.2971
  134PVA    C2622694   7.341   6.220   3.205  0.4069  0.5950 -0.8700
  134PVA    H5122695   7.368   6.322   3.234  2.0151 -0.1855  0.5422
  134PVA     O922696   7.243   6.220   3.090 -0.6312  0.2370 -0.2772
  134PVA    H5222697   7.233   6.138   3.039 -2.4310  0.6170 -0.6145
  134PVA    C2722698   7.267   6.154   3.335 -0.3601 -0.1904 -0.5296
  134PVA    H5322699   7.158   6.148   3.323 -0.2217  0.3693 -2.3084
  134PVA    H5422700   7.315   6.057   3.352  2.2520  0.4449 -3.4159
  134PVA    C2822701   7.289   6.247   3.465 -0.6967  0.0753 -0.5844
  134PVA    H5522702   7.263   6.352   3.445  0.6755  0.2785 -1.4653
  134PVA    H5622703   7.399   6.247   3.477 -0.7688  1.0795  0.2395
  134PVA    C2922704   7.233   6.200   3.593  0.3534 -0.6732 -0.8282
  134PVA    H5722705   7.260   6.095   3.605  0.8249 -0.2411  3.6462
  134PVA    O1022706   7.089   6.224   3.587 -0.3291 -0.1600 -0.0231
  134PVA    H5822707   7.045   6.157   3.533 -0.8908 -0.7362  1.1021
  134PVA    C3022708   7.292   6.262   3.718 -0.4290 -0.5379 -0.1190
  134PVA    H5922709   7.244   6.211   3.802  2.7865 -2.7746  0.5734
  134PVA    H6022710   7.400   6.241   3.728 -0.1212  0.9113 -0.1628
  134PVA    C3122711   7.286   6.419   3.741  0.3401  1.6361  0.1683
  134PVA    H6122712   7.279   6.479   3.650  1.7056  3.0966  0.9823
  134PVA    H6222713   7.391   6.443   3.758  1.0530 -0.6247 -0.6634
  134PVA    C3222714   7.185   6.482   3.850  1.2724 -1.5976  0.3052
  134PVA    H6322715   7.080   6.488   3.817  0.2293 -1.9194  3.2302
  134PVA    O1122716   7.183   6.404   3.963 -0.4042 -0.4078 -0.2425
  134PVA    H6422717   7.116   6.438   4.025  1.6147 -2.5467  3.4115
  134PVA    C3322718   7.195   6.617   3.909 -0.7449  1.0693 -0.5804
  134PVA    H6522719   7.213   6.685   3.824 -1.5243  2.3954  0.2733
  134PVA    H6622720   7.284   6.610   3.973 -1.8694 -1.1329  0.8386
  134PVA    C3422721   7.079   6.673   3.989  0.4503 -0.4072 -0.1901
  134PVA    H6722722   6.995   6.615   3.948 -0.7829  1.4493 -0.4028
  134PVA    H6822723   7.101   6.642   4.092  1.5874 -1.4946 -0.7208
  134PVA    C3522724   7.054   6.829   3.985 -0.3717  0.1934  1.0271
  134PVA    H6922725   7.155   6.871   3.986 -0.5003  0.5066  0.8709
  134PVA    O1222726   6.992   6.851   3.864 -1.0829 -0.3891  0.8309
  134PVA    H7022727   6.930   6.778   3.847  1.1382 -2.2308  0.0797
  134PVA    C3622728   6.964   6.885   4.092  0.4163  0.4061  0.0477
  134PVA    H7122729   6.896   6.801   4.111  0.5700 -0.8882 -4.1386
  134PVA    H7222730   7.020   6.921   4.180  0.6746 -1.5047  0.7134
  134PVA    C3722731   6.887   7.010   4.053  0.6369 -0.1145  0.3620
  134PVA    H7322732   6.814   6.998   3.972 -3.4942 -1.2171  3.8465
  134PVA    H7422733   6.965   7.081   4.025  1.3103 -1.0049 -0.0544
  134PVA    C3822734   6.818   7.069   4.180 -0.1539  0.5100 -0.4100
  134PVA    H7522735   6.896   7.095   4.252 -3.3772  1.9281  2.8995
  134PVA    O1322736   6.743   6.962   4.250  0.6194  0.3053  0.4030
  134PVA    H7622737   6.675   6.920   4.195 -1.1667 -0.1907  2.8322
  134PVA    C3922738   6.726   7.195   4.152 -0.3773  0.1501 -0.9700
  134PVA    H7722739   6.732   7.215   4.044  0.0228  4.4500 -0.3186
  134PVA    H7822740   6.787   7.279   4.189 -1.6237  1.0061 -0.8025
  134PVA    C4022741   6.577   7.184   4.196  0.7666  0.0587  0.0271
  134PVA    H7922742   6.536   7.098   4.141  0.3159 -0.6883  1.4694
  134PVA    H8022743   6.561   7.138   4.295 -0.4195 -1.3124 -0.7518
  134PVA    C4122744   6.501   7.316   4.172 -0.6141 -1.4236 -0.6433
  134PVA    H8122745   6.555   7.407   4.201 -0.4267 -1.2119 -1.5944
  134PVA    O1422746   6.450   7.325   4.038 -0.6817  0.4012  0.1337
  134PVA    H8222747   6.394   7.248   4.019  0.0815 -0.1968  0.2619
  134PVA    C4222748   6.371   7.304   4.260 -0.8754 -0.2155 -0.1618
  134PVA    H8322749   6.303   7.223   4.229 -1.6795  0.5396 -0.4064
  134PVA    H8422750   6.408   7.279   4.360  0.5196 -0.5495 -0.7341
  134PVA    C4322751   6.297   7.440   4.294  0.8448  0.6997  1.4835
  134PVA    H8522752   6.266   7.499   4.207  0.2543 -1.3096  0.2687
  134PVA    H8622753   6.371   7.504   4.343  0.5027 -1.0509  4.5646
  134PVA    C4422754   6.157   7.428   4.373  0.4720  1.1366 -0.7007
  134PVA    H8722755   6.086   7.405   4.293 -1.4796  4.2044 -0.0230
  134PVA    O1522756   6.143   7.326   4.478  0.2841 -0.6486 -0.2082
  134PVA    H8822757   6.052   7.316   4.510  1.4226  1.3176  4.5338
  134PVA    C4522758   6.107   7.556   4.450  0.0156  0.3338  1.1429
  134PVA    H8922759   6.122   7.648   4.391  1.5853 -0.8715 -0.4426
  134PVA    H9022760   6.178   7.566   4.533  0.9212 -0.6878  0.5268
  134PVA    C4622761   5.966   7.566   4.503 -0.2187 -0.9147  0.3231
  134PVA    H9122762   5.908   7.514   4.426  3.6732 -5.3998 -0.0007
  134PVA    H9222763   5.949   7.506   4.594 -2.1152  0.6032  1.0460
  134PVA    C4722764   5.920   0.026   4.550  1.2807 -0.3157 -0.0473
  134PVA    H9322765   5.928   0.118   4.490 -1.4203  2.8705  3.8852
  134PVA    O1622766   5.999   0.061   4.666 -0.7488  0.6101 -0.2234
  134PVA    H9422767   6.093   0.061   4.642 -0.6571  0.9918  0.1279
  134PVA    C4822768   5.768   0.033   4.601 -0.2779 -1.1011 -0.3662
  134PVA    H9522769   5.731   0.000   4.504  0.8690 -3.6682 -0.0017
  134PVA    H9622770   5.764   7.648   4.686  4.9009  0.3931  1.4711
  134PVA    C4922771   5.718   0.182   4.646  0.6586  1.2854 -0.0503
  134PVA    H9722772   5.741   0.263   4.576 -3.1520  4.7964  2.3110
  134PVA    H9822773   5.760   0.210   4.744 -2.6457 -2.9658  2.9595
  134PVA    C5022774   5.563   0.194   4.666  0.2493  0.3334  0.9433
  134PVA    H9922775   5.522   0.295   4.658  2.7911  1.3424 -0.5490
  134PVA    O1722776   5.504   0.114   4.551  0.3254 -0.1534 -0.3361
  134PVA   H10022777   5.563   0.037   4.537 -0.2181 -0.8886  1.1752
  134PVA    C5122778   5.516   0.125   4.800 -0.3071 -0.0813  0.3875
  134PVA   H10122779   5.460   0.038   4.765 -0.3767  0.8336 -1.9771
  134PVA   H10222780   5.610   0.090   4.843 -0.3877 -1.6791 -0.6678
  135PVA     C122781   2.728   5.862   2.726 -0.1434  0.3120 -0.9307
  135PVA     H122782   2.772   5.927   2.649 -1.1977 -0.7532 -2.5031
  135PVA     H222783   2.795   5.778   2.705 -1.3838 -0.2060 -3.2350
  135PVA     C222784   2.584   5.845   2.682  0.1258  0.9031  0.4580
  135PVA     H322785   2.514   5.870   2.762 -1.6814 -0.0619 -0.7354
  135PVA     O122786   2.587   5.708   2.650  0.9388  1.0170 -0.1172
  135PVA     H422787   2.570   5.698   2.555  2.9697 -1.0034 -0.3477
  135PVA     C322788   2.540   5.932   2.559  0.1177  0.1488 -0.1949
  135PVA     H522789   2.543   6.038   2.585  0.5509  0.1485 -0.2418
  135PVA     H622790   2.613   5.915   2.479 -0.3163 -2.8132 -0.0983
  135PVA     C422791   2.402   5.901   2.494 -0.0478  0.4228  0.0264
  135PVA     H722792   2.380   5.794   2.482  0.4556  0.1698  1.2371
  135PVA     H822793   2.331   5.920   2.575 -1.4813 -1.9978 -0.5541
  135PVA     C522794   2.377   5.985   2.364  0.9737  0.0295  0.7361
  135PVA     H922795   2.477   6.021   2.337  1.3597 -2.5003 -1.6249
  135PVA     O222796   2.312   6.104   2.416  0.0235  0.1277  0.0285
  135PVA    H1022797   2.372   6.180   2.402 -0.9888  1.1331  1.0114
  135PVA     C622798   2.296   5.909   2.239  0.5231 -0.0079  0.9226
  135PVA    H1122799   2.345   5.815   2.212  2.9205  0.0491  4.4526
  135PVA    H1222800   2.197   5.889   2.280  0.4623 -0.4566  0.5688
  135PVA     C722801   2.260   6.007   2.114  0.3193 -1.2135 -0.4766
  135PVA    H1322802   2.344   6.077   2.109  0.4351 -0.6548  4.5626
  135PVA    H1422803   2.164   6.055   2.136  1.0436 -0.3174  0.8507
  135PVA     C822804   2.232   5.936   1.971 -0.5769 -1.0609 -0.2011
  135PVA    H1522805   2.134   5.886   1.975 -0.6243 -1.0843 -1.3074
  135PVA     O322806   2.321   5.829   1.953  0.4064 -0.8739 -1.5527
  135PVA    H1622807   2.330   5.800   1.860 -0.1723 -0.0137 -1.8803
  135PVA     C922808   2.245   6.027   1.844  0.8102 -1.2080 -0.6472
  135PVA    H1722809   2.343   6.076   1.849 -0.5577  1.6516  2.8825
  135PVA    H1822810   2.173   6.107   1.864 -0.6658 -2.2159 -1.6820
  135PVA    C1022811   2.237   5.953   1.703  0.5391 -0.6865  0.3080
  135PVA    H1922812   2.331   5.898   1.692 -0.4877 -2.4866  0.1570
  135PVA    H2022813   2.154   5.881   1.703 -1.5214  1.5647  1.2878
  135PVA    C1122814   2.241   6.048   1.570  0.7966  0.7378 -0.1285
  135PVA    H2122815   2.140   6.090   1.571  1.2768  1.9167  1.3983
  135PVA     O422816   2.330   6.152   1.582  0.6271 -0.5094  0.1591
  135PVA    H2222817   2.306   6.198   1.665 -1.1587  2.1706 -1.6672
  135PVA    C1222818   2.262   5.969   1.430 -0.5650 -0.6204  0.0085
  135PVA    H2322819   2.370   5.954   1.425 -0.3900  0.6827 -0.3253
  135PVA    H2422820   2.204   5.877   1.417 -0.6990 -1.1707  3.3659
  135PVA    C1322821   2.241   6.054   1.309  0.2930 -0.3608  0.3777
  135PVA    H2522822   2.258   6.159   1.339 -0.6842 -0.0741 -0.0208
  135PVA    H2622823   2.133   6.060   1.292  0.4618 -0.3588 -0.7836
  135PVA    C1422824   2.317   6.023   1.166 -0.1691  0.4527 -1.5953
  135PVA    H2722825   2.312   5.917   1.138 -4.0375  0.5642 -1.9274
  135PVA     O522826   2.455   6.063   1.166  0.9323 -0.5459 -0.3476
  135PVA    H2822827   2.464   6.149   1.120  1.9348 -0.4390  0.0145
  135PVA    C1522828   2.235   6.096   1.043 -0.0186 -0.3042  0.2417
  135PVA    H2922829   2.204   6.197   1.071 -1.2522 -0.3594 -0.8663
  135PVA    H3022830   2.142   6.040   1.029 -0.9160  1.0937  0.4208
  135PVA    C1622831   2.320   6.102   0.916  0.2621  0.3021 -0.8255
  135PVA    H3122832   2.429   6.099   0.920  0.3729 -0.7311 -3.1849
  135PVA    H3222833   2.301   6.002   0.876 -1.8452 -0.2967  1.4188
  135PVA    C1722834   2.275   6.214   0.813  0.6756  0.3899 -0.3033
  135PVA    H3322835   2.257   6.310   0.862 -2.1783  0.1610 -0.7750
  135PVA     O622836   2.131   6.189   0.806  0.6833 -0.2103  0.0149
  135PVA    H3422837   2.098   6.270   0.848 -2.2493  1.4278 -4.6857
  135PVA    C1822838   2.323   6.210   0.663  0.1949  0.3329 -1.5563
  135PVA    H3522839   2.263   6.127   0.624  1.9015 -1.8274  0.1884
  135PVA    H3622840   2.428   6.178   0.662 -0.3204 -1.6524  0.6671
  135PVA    C1922841   2.297   6.347   0.590  0.3648 -0.8447 -0.1601
  135PVA    H3722842   2.364   6.417   0.642  0.3772  0.7828 -2.2225
  135PVA    H3822843   2.188   6.363   0.597  0.0521  0.0038 -4.3576
  135PVA    C2022844   2.335   6.362   0.446 -1.4582 -0.5583 -1.3198
  135PVA    H3922845   2.302   6.269   0.399  1.2250 -1.3840 -1.7903
  135PVA     O722846   2.474   6.374   0.436 -0.4154 -0.7004 -0.1547
  135PVA    H4022847   2.534   6.310   0.479  1.4648  0.1212 -1.4220
  135PVA    C2122848   2.276   6.497   0.377  0.3677  0.2566 -0.8317
  135PVA    H4122849   2.176   6.501   0.422  1.4976 -0.3620  1.9673
  135PVA    H4222850   2.330   6.580   0.423  0.0371 -0.6422  1.2974
  135PVA    C2222851   2.246   6.535   0.232 -0.4079 -0.2059  0.5455
  135PVA    H4322852   2.182   6.459   0.186 -1.4718  0.1802  1.3487
  135PVA    H4422853   2.332   6.568   0.171  0.6287  3.1009  3.4279
  135PVA    C2322854   2.169   6.675   0.218  0.0262  0.4246  0.1740
  135PVA    H4522855   2.072   6.651   0.263  0.9725 -0.8318  1.6451
  135PVA     O822856   2.224   6.764   0.311  0.0493 -0.7176 -1.0040
  135PVA    H4622857   2.312   6.731   0.285  0.3312  2.6163 -5.3229
  135PVA    C2422858   2.157   6.740   0.074  0.0986 -1.3846  0.6788
  135PVA    H4722859   2.236   6.724   8.097 -2.6032  0.6227 -2.9478
  135PVA    H4822860   2.061   6.718   0.025  1.2551 -2.6310 -1.1553
  135PVA    C2522861   2.159   6.899   0.084  0.5152 -0.3090 -0.5338
  135PVA    H4922862   2.245   6.929   0.143  1.0252  0.9613 -1.8507
  135PVA    H5022863   2.079   6.935   0.150  1.2344  2.6042 -1.0916
  135PVA    C2622864   2.146   7.003   8.050  0.6071  0.4815 -0.1763
  135PVA    H5122865   2.042   7.034   8.039  0.0338 -0.6751  1.5556
  135PVA     O922866   2.175   6.916   7.938 -0.3070 -0.1075  0.2830
  135PVA    H5222867   2.190   6.975   7.862  0.0925  0.7678  1.0316
  135PVA    C2722868   2.234   7.133   8.037 -0.0601  0.9724 -0.8704
  135PVA    H5322869   2.343   7.120   8.043  0.4701  4.7070  0.1890
  135PVA    H5422870   2.207   7.186   0.032 -1.4456  1.5994 -1.6051
  135PVA    C2822871   2.210   7.225   7.913 -0.1321 -1.1075  0.9023
  135PVA    H5522872   2.261   7.186   7.823  2.1701 -0.5557  1.8892
  135PVA    H5622873   2.104   7.229   7.887  0.1930 -0.7150 -0.4733
  135PVA    C2922874   2.249   7.379   7.940  0.4828  0.0086 -0.5836
  135PVA    H5722875   2.205   7.407   8.036  0.9690  4.2145 -1.3666
  135PVA    O1022876   2.388   7.393   7.943  0.9975 -0.5611 -0.0324
  135PVA    H5822877   2.414   7.445   8.021 -1.0241 -1.5245  1.3813
  135PVA    C3022878   2.187   7.487   7.841  0.5304  0.8005 -0.4576
  135PVA    H5922879   2.078   7.496   7.848  0.6755  1.4637  1.7617
  135PVA    H6022880   2.222   7.433   7.752  4.1682 -1.4558  2.0619
  135PVA    C3122881   2.240   7.633   7.838  0.4985 -0.2971  0.1787
  135PVA    H6122882   2.349   7.637   7.850  0.3908 -1.8126  2.1740
  135PVA    H6222883   2.184   7.670   7.925 -1.1538 -2.3880  0.0687
  135PVA    C3222884   2.215   0.031   7.710  1.4043 -0.3415 -0.4309
  135PVA    H6322885   2.266   7.666   7.626  2.0343  0.2564 -0.4153
  135PVA    O1122886   2.064   0.014   7.686 -0.1980 -0.5812  0.2833
  135PVA    H6422887   2.083   7.684   7.592  5.3250  1.2932  0.7064
  135PVA    C3322888   2.255   0.184   7.698  0.0173  0.1230 -0.3919
  135PVA    H6522889   2.168   0.244   7.670  1.5602  1.9979 -1.4185
  135PVA    H6622890   2.284   0.230   7.793 -0.1325 -2.0754  0.7993
  135PVA    C3422891   2.354   0.221   7.583 -0.1071 -0.8594 -0.1030
  135PVA    H6722892   2.448   0.165   7.596 -0.3292 -0.9434  1.3540
  135PVA    H6822893   2.299   0.184   7.496 -1.0874 -3.6817  1.5480
  135PVA    C3522894   2.372   0.369   7.550  0.0149 -0.2992 -0.7528
  135PVA    H6922895   2.278   0.402   7.505  0.8446 -1.2130 -3.3399
  135PVA    O1222896   2.422   0.443   7.661  0.4430 -0.4452 -0.0994
  135PVA    H7022897   2.511   0.405   7.675 -0.1066 -1.1398  1.7598
  135PVA    C3622898   2.482   0.391   7.440  0.4493  0.3450  0.3525
  135PVA    H7122899   2.576   0.346   7.472 -0.1443  0.8192  2.9317
  135PVA    H7222900   2.439   0.344   7.350 -1.9863  0.4859  1.3588
  135PVA    C3722901   2.518   0.545   7.399  0.3347 -0.9869 -0.1850
  135PVA    H7322902   2.599   0.578   7.465  1.6796 -3.9986 -0.1328
  135PVA    H7422903   2.429   0.607   7.412  0.8979  0.6446 -3.1451
  135PVA    C3822904   2.572   0.583   7.253  0.6623  0.0051  0.5360
  135PVA    H7522905   2.491   0.537   7.195 -3.6934  3.3049  3.2906
  135PVA    O1322906   2.697   0.502   7.233  0.3922  0.5915  0.1513
  135PVA    H7622907   2.688   0.410   7.263  1.7193  0.2591 -0.4254
  135PVA    C3922908   2.598   0.732   7.198 -0.0852  0.3353  0.1775
  135PVA    H7722909   2.655   0.783   7.277 -1.7012  1.4506  0.6743
  135PVA    H7822910   2.663   0.711   7.113 -1.7882  0.7175 -1.2887
  135PVA    C4022911   2.469   0.799   7.138 -0.1847 -1.0965 -0.3081
  135PVA    H7922912   2.441   0.722   7.065  1.7161 -2.6410  0.5201
  135PVA    H8022913   2.377   0.813   7.196 -0.8635 -5.5658  0.0070
  135PVA    C4122914   2.484   0.944   7.079  0.6614 -0.1729  0.6555
  135PVA    H8122915   2.575   0.952   7.018 -1.6233  0.0917 -2.9904
  135PVA    O1422916   2.471   1.028   7.190  0.0733  0.1984 -0.3969
  135PVA    H8222917   2.531   1.097   7.160  2.1645 -1.1682  0.4128
  135PVA    C4222918   2.374   1.002   6.979  0.1104 -0.8685  0.0670
  135PVA    H8322919   2.334   0.920   6.918 -0.3572 -1.3448  0.9804
  135PVA    H8422920   2.294   1.040   7.045  0.0400  1.4420 -1.2611
  135PVA    C4322921   2.408   1.133   6.898  0.8052 -0.2911 -1.0634
  135PVA    H8522922   2.515   1.145   6.875  1.6632 -1.6487  1.6664
  135PVA    H8622923   2.384   1.205   6.978  0.3503  0.2933 -1.7151
  135PVA    C4422924   2.327   1.158   6.769  1.2952  0.1367 -0.3335
  135PVA    H8722925   2.296   1.061   6.729 -1.8938 -0.2448  2.5840
  135PVA    O1522926   2.201   1.224   6.799  0.3475  0.6981 -0.0608
  135PVA    H8822927   2.214   1.320   6.796  1.5243  0.5367 -2.1941
  135PVA    C4522928   2.382   1.231   6.644  0.4559  0.2127  0.2875
  135PVA    H8922929   2.475   1.177   6.622 -0.1744 -0.3797 -1.0808
  135PVA    H9022930   2.414   1.327   6.685  2.8524 -1.2412  2.0747
  135PVA    C4622931   2.305   1.248   6.511 -0.6880 -0.3516  0.5424
  135PVA    H9122932   2.356   1.176   6.447  0.1546  1.7590 -1.2811
  135PVA    H9222933   2.201   1.211   6.511 -0.9544  0.2940  2.1880
  135PVA    C4722934   2.303   1.391   6.447 -0.2646 -0.6668 -0.7740
  135PVA    H9322935   2.257   1.452   6.525  2.8859  2.8195 -1.3380
  135PVA    O1622936   2.434   1.440   6.434  0.5836 -0.5068  0.1511
  135PVA    H9422937   2.443   1.409   6.343 -2.4976 -0.9990 -0.1072
  135PVA    C4822938   2.241   1.415   6.309  0.6478 -0.1260 -0.2662
  135PVA    H9522939   2.274   1.329   6.250 -2.4696 -2.4672  1.1025
  135PVA    H9622940   2.140   1.374   6.311  0.1461  1.0388  1.8999
  135PVA    C4922941   2.240   1.562   6.247 -0.2365  0.2822 -0.2200
  135PVA    H9722942   2.339   1.610   6.252 -0.3568  0.4505  0.7535
  135PVA    H9822943   2.172   1.620   6.310 -1.5520 -3.6180  2.3075
  135PVA    C5022944   2.180   1.609   6.106  0.4938  1.1521  0.2439
  135PVA    H9922945   2.078   1.646   6.123 -1.5102 -0.8330 -5.3017
  135PVA    O1722946   2.168   1.486   6.040  0.4251  0.1862  0.6415
  135PVA   H10022947   2.112   1.415   6.075 -1.0507  1.2760  0.5716
  135PVA    C5122948   2.255   1.700   6.008 -0.1694 -0.5232  0.1809
  135PVA   H10122949   2.319   1.762   6.072 -1.5031 -0.2629  1.3202
  135PVA   H10222950   2.299   1.649   5.921 -2.9613 -2.5359 -0.2271
  136PVA     C122951   5.278   1.013   5.021  0.1378  1.7353 -0.3212
  136PVA     H122952   5.307   1.109   5.064  2.4006  1.3869 -0.9490
  136PVA     H222953   5.176   1.034   4.986 -2.1242 -2.9297  2.4315
  136PVA     C222954   5.282   0.903   5.132 -0.7242  0.0891 -0.4101
  136PVA     H322955   5.279   0.807   5.079 -0.1227 -0.1983  0.0770
  136PVA     O122956   5.400   0.916   5.209  0.0445 -0.1980  1.3735
  136PVA     H422957   5.369   0.891   5.297 -2.2016 -4.2235 -0.2594
  136PVA     C322958   5.169   0.930   5.229  0.3164  0.8779  0.6979
  136PVA     H522959   5.073   0.928   5.175  0.4120 -0.0252  0.5538
  136PVA     H622960   5.197   1.026   5.274  3.8614  0.6800 -0.7641
  136PVA     C422961   5.151   0.828   5.344  0.4037 -0.4288 -0.3443
  136PVA     H722962   5.076   0.873   5.411 -0.2341  0.6520 -1.7519
  136PVA     H822963   5.107   0.732   5.314 -0.1257 -0.0659 -0.7548
  136PVA     C522964   5.276   0.785   5.425 -0.1729 -0.5882 -0.1628
  136PVA     H922965   5.336   0.735   5.349  1.4104  3.4052 -1.8082
  136PVA     O222966   5.341   0.892   5.475  0.8469 -0.1026  0.9321
  136PVA    H1022967   5.397   0.860   5.547 -0.2990 -2.7484  0.7532
  136PVA     C622968   5.246   0.691   5.546  1.3133 -0.0376 -0.4728
  136PVA    H1122969   5.201   0.756   5.622  1.5189  0.4099 -0.7308
  136PVA    H1222970   5.173   0.613   5.519  2.2331 -2.0587  2.3733
  136PVA     C722971   5.366   0.621   5.599  0.0334 -0.4294  0.2804
  136PVA    H1322972   5.437   0.702   5.619  0.1813 -0.6187  0.5262
  136PVA    H1422973   5.402   0.570   5.509  2.1398 -0.4873  1.0960
  136PVA     C822974   5.357   0.531   5.721 -0.5401 -0.4771  0.4538
  136PVA    H1522975   5.322   0.436   5.678  2.1562 -1.4480  0.2280
  136PVA     O322976   5.482   0.521   5.770 -0.8179 -0.5431 -0.0298
  136PVA    H1622977   5.480   0.454   5.841  1.6061  1.8522  2.5453
  136PVA     C922978   5.266   0.580   5.829  0.3567 -0.3922 -0.7341
  136PVA    H1722979   5.268   0.690   5.825  3.1872 -0.3586 -4.6878
  136PVA    H1822980   5.290   0.559   5.934 -3.5024  5.1613  1.7879
  136PVA    C1022981   5.114   0.542   5.803 -0.5042  0.4071  0.2807
  136PVA    H1922982   5.076   0.563   5.702 -0.6848 -0.1520  0.2274
  136PVA    H2022983   5.119   0.433   5.814 -3.8939  0.0576 -0.5065
  136PVA    C1122984   5.026   0.602   5.919  0.9401  0.5356  0.5439
  136PVA    H2122985   5.083   0.568   6.006  3.0837 -4.0447 -2.3040
  136PVA     O422986   4.903   0.536   5.907 -0.5827  0.1861 -0.8562
  136PVA    H2222987   4.837   0.574   5.968 -0.2929 -2.4070  1.2821
  136PVA    C1222988   4.990   0.752   5.927  0.5668  0.4214  1.2911
  136PVA    H2322989   5.069   0.818   5.965  1.0545  0.3787  0.3927
  136PVA    H2422990   4.903   0.765   5.993 -0.8120  1.1637 -0.5550
  136PVA    C1322991   4.945   0.801   5.779 -0.0557  0.2795 -0.0232
  136PVA    H2522992   5.017   0.784   5.698  1.8507 -2.0576  2.0020
  136PVA    H2622993   4.853   0.743   5.764  1.5132 -1.4260 -5.0488
  136PVA    C1422994   4.905   0.947   5.751  0.5868  0.9406 -0.1146
  136PVA    H2722995   4.991   1.012   5.767 -0.2772  1.4178  3.5902
  136PVA     O522996   4.820   0.985   5.860 -0.0539 -1.4559  0.2947
  136PVA    H2822997   4.734   0.944   5.846 -0.2073 -2.0831  2.6814
  136PVA    C1522998   4.847   0.975   5.611  0.5007 -0.1812  0.2076
  136PVA    H2922999   4.743   0.940   5.610 -0.5040  2.5557  1.0302
  136PVA    H3023000   4.913   0.935   5.532  0.0151  0.1647 -0.3795
  136PVA    C1623001   4.845   1.128   5.591 -0.2671  0.3509 -0.0914
  136PVA    H3123002   4.779   1.164   5.671 -0.9628 -3.2723  1.1759
  136PVA    H3223003   4.942   1.170   5.618  0.1014 -1.0894  0.9738
  136PVA    C1723004   4.799   1.174   5.459  0.5933 -0.4756 -1.2358
  136PVA    H3323005   4.877   1.142   5.389 -0.5057 -2.4842 -1.6327
  136PVA     O623006   4.684   1.091   5.427 -0.0783  0.1259  0.0630
  136PVA    H3423007   4.694   1.006   5.472  1.6963 -0.3237 -1.1019
  136PVA    C1823008   4.773   1.331   5.452 -0.0673  0.7596  0.1108
  136PVA    H3523009   4.771   1.374   5.553  0.7450 -1.3852  1.1222
  136PVA    H3623010   4.864   1.368   5.402  0.9927  0.0070  1.4097
  136PVA    C1923011   4.639   1.396   5.394  0.1463  0.4078 -1.1097
  136PVA    H3723012   4.608   1.336   5.307 -2.3950  4.3626 -3.1867
  136PVA    H3823013   4.551   1.403   5.458 -1.2098 -2.8353 -2.3931
  136PVA    C2023014   4.652   1.542   5.341  0.7373 -0.2795  0.1590
  136PVA    H3923015   4.664   1.602   5.431  0.7077 -0.9550  0.6247
  136PVA     O723016   4.764   1.522   5.248  1.2009  0.1964 -0.2865
  136PVA    H4023017   4.850   1.512   5.294  0.5870 -1.3249  0.5988
  136PVA    C2123018   4.524   1.597   5.262 -0.3962 -0.1806 -0.7328
  136PVA    H4123019   4.552   1.700   5.238  1.3562  0.6699  3.8913
  136PVA    H4223020   4.441   1.599   5.333  0.2195 -2.9851  0.1776
  136PVA    C2223021   4.495   1.514   5.140 -0.0074  0.6898 -1.0901
  136PVA    H4323022   4.586   1.510   5.080  0.6028  0.1310 -0.1628
  136PVA    H4423023   4.479   1.408   5.164  0.7804  0.8266  0.1459
  136PVA    C2323024   4.373   1.575   5.066  1.0875 -0.2308  0.3720
  136PVA    H4523025   4.280   1.559   5.121 -0.5669  1.9561 -1.5428
  136PVA     O823026   4.385   1.721   5.050  0.4544  1.5784  0.5890
  136PVA    H4623027   4.459   1.742   4.991  0.5819  2.9536  1.1831
  136PVA    C2423028   4.350   1.505   4.923 -0.4447 -0.0532  1.4211
  136PVA    H4723029   4.270   1.546   4.860 -0.0572 -3.2536 -1.4206
  136PVA    H4823030   4.447   1.480   4.878 -1.3397  0.4555 -0.9907
  136PVA    C2523031   4.287   1.364   4.963 -0.8114 -0.2804  0.3631
  136PVA    H4923032   4.201   1.381   5.029 -2.2370 -0.7514 -1.2879
  136PVA    H5023033   4.357   1.298   5.017  0.8575  1.2563  0.1522
  136PVA    C2623034   4.229   1.274   4.857  0.7388  0.7901  0.1764
  136PVA    H5123035   4.171   1.340   4.792 -3.6967 -2.2722  0.5557
  136PVA     O923036   4.339   1.227   4.790  0.2885 -0.0535 -0.3868
  136PVA    H5223037   4.314   1.222   4.697 -0.4768 -1.0050 -0.1414
  136PVA    C2723038   4.133   1.163   4.914 -0.8494  0.1377  0.3618
  136PVA    H5323039   4.064   1.213   4.983  3.1719  1.8279  3.5118
  136PVA    H5423040   4.189   1.095   4.979 -2.2469  1.9224  3.6471
  136PVA    C2823041   4.057   1.097   4.801  0.1058  0.0095  1.1606
  136PVA    H5523042   4.127   1.027   4.754 -2.2927 -1.2077 -0.8740
  136PVA    H5623043   4.011   1.156   4.722 -1.7971 -0.9452  1.4789
  136PVA    C2923044   3.945   1.003   4.840  0.2873  0.0672  0.6346
  136PVA    H5723045   3.891   0.962   4.753 -1.3708  0.1532  1.5766
  136PVA    O1023046   3.988   0.888   4.916 -0.8676  0.3102 -0.0500
  136PVA    H5823047   4.043   0.827   4.864  4.3415  1.4013  3.3794
  136PVA    C3023048   3.846   1.071   4.921  0.1653 -0.3741 -0.2111
  136PVA    H5923049   3.859   1.071   5.030  1.3694 -1.8698 -0.3169
  136PVA    H6023050   3.830   1.177   4.896  1.6692  0.5377  2.2812
  136PVA    C3123051   3.708   0.997   4.901  0.5969 -0.1089  1.0551
  136PVA    H6123052   3.646   0.995   4.991 -0.6698 -4.7067  0.3296
  136PVA    H6223053   3.720   0.888   4.894  2.1310  0.0569  0.7567
  136PVA    C3223054   3.622   1.077   4.801  0.0946  0.6992 -0.7531
  136PVA    H6323055   3.604   1.175   4.846  0.0417  1.1327 -1.7027
  136PVA    O1123056   3.691   1.090   4.677 -0.2828 -1.2302 -0.1316
  136PVA    H6423057   3.667   1.179   4.645 -1.5900 -1.0280  1.3208
  136PVA    C3323058   3.484   1.006   4.789 -0.3352 -0.5938 -0.6294
  136PVA    H6523059   3.435   0.993   4.887  0.3862 -2.2020 -0.4427
  136PVA    H6623060   3.497   0.902   4.757 -4.6696 -2.0969  1.6408
  136PVA    C3423061   3.386   1.092   4.704  0.9337  0.1302  0.0305
  136PVA    H6723062   3.375   1.189   4.755  1.8038  0.6805 -0.7942
  136PVA    H6823063   3.434   1.116   4.609  3.1997  1.7921  1.4776
  136PVA    C3523064   3.235   1.040   4.707  0.1211 -0.2073  0.3587
  136PVA    H6923065   3.200   1.071   4.807  0.1522 -0.8067  0.5578
  136PVA    O1223066   3.224   0.899   4.691 -0.6135 -1.0457  0.1940
  136PVA    H7023067   3.267   0.855   4.767 -1.0336 -4.5770 -1.4221
  136PVA    C3623068   3.142   1.102   4.602 -0.8903 -0.8295 -0.1482
  136PVA    H7123069   3.149   1.054   4.504 -2.9561  1.9143 -1.7785
  136PVA    H7223070   3.056   1.053   4.647 -2.5649  0.4265 -1.8058
  136PVA    C3723071   3.149   1.252   4.583 -1.5678  0.8312 -0.0084
  136PVA    H7323072   3.240   1.248   4.523 -1.8547  0.8921 -0.4484
  136PVA    H7423073   3.184   1.294   4.678 -2.6039 -0.8680  1.1842
  136PVA    C3823074   3.048   1.330   4.511  0.8541 -0.0775  1.5331
  136PVA    H7523075   3.050   1.304   4.405 -0.9982  5.3829 -0.1424
  136PVA    O1323076   3.086   1.463   4.531  0.4993 -0.2935  1.9257
  136PVA    H7623077   3.092   1.495   4.439  0.8564 -0.6478  1.8223
  136PVA    C3923078   2.893   1.312   4.544 -0.3925  0.2869 -1.2090
  136PVA    H7723079   2.853   1.235   4.477  0.8512 -2.4008  0.9380
  136PVA    H7823080   2.875   1.267   4.643  1.8394  2.6064  0.3706
  136PVA    C4023081   2.800   1.433   4.520  0.4191 -0.2867 -0.6067
  136PVA    H7923082   2.851   1.530   4.526  4.1543 -1.8553 -3.0707
  136PVA    H8023083   2.771   1.438   4.414 -1.2309 -0.3302 -0.1774
  136PVA    C4123084   2.700   1.432   4.629 -0.2086 -0.0772 -0.4177
  136PVA    H8123085   2.748   1.402   4.723  1.1472 -1.0804 -1.3974
  136PVA    O1423086   2.596   1.342   4.599 -0.1721 -0.8467 -0.0125
  136PVA    H8223087   2.648   1.271   4.557  1.0279  1.8644 -3.6369
  136PVA    C4223088   2.624   1.572   4.648  0.0715  0.5457  0.2443
  136PVA    H8323089   2.686   1.658   4.672  0.2450  0.5806 -0.3059
  136PVA    H8423090   2.589   1.577   4.544  1.5224 -0.6722 -0.3398
  136PVA    C4323091   2.498   1.575   4.741  0.0646 -0.2041 -1.0264
  136PVA    H8523092   2.549   1.544   4.833  0.0138  3.7681  0.5244
  136PVA    H8623093   2.422   1.504   4.706 -2.0910  1.2304  0.4812
  136PVA    C4423094   2.418   1.706   4.753  0.6615 -0.2089  0.5964
  136PVA    H8723095   2.347   1.731   4.673 -0.8689 -0.1925  1.8958
  136PVA    O1523096   2.509   1.812   4.795 -0.1428  0.7787  0.2862
  136PVA    H8823097   2.445   1.886   4.793 -0.5877  0.4136  0.6959
  136PVA    C4523098   2.332   1.686   4.879 -0.7466 -0.5936 -1.2258
  136PVA    H8923099   2.381   1.696   4.977 -1.5441 -0.3655 -0.8442
  136PVA    H9023100   2.303   1.580   4.892 -1.8913  0.0564  3.4627
  136PVA    C4623101   2.216   1.783   4.916 -0.3898  0.3166 -0.0103
  136PVA    H9123102   2.255   1.885   4.918  0.6509 -0.0821  0.4325
  136PVA    H9223103   2.166   1.741   4.827  0.3772 -4.5245  1.5828
  136PVA    C4723104   2.162   1.761   5.066 -0.2819  0.4023  0.4284
  136PVA    H9323105   2.252   1.759   5.129 -0.1155 -1.0034  0.1649
  136PVA    O1623106   2.075   1.639   5.074  0.6425  0.4050  0.9494
  136PVA    H9423107   2.087   1.586   4.993  2.0508 -0.5343  1.7420
  136PVA    C4823108   2.072   1.869   5.140  0.3416  0.9060  0.1680
  136PVA    H9523109   2.108   1.973   5.146  1.6160  0.3987  3.1950
  136PVA    H9623110   1.983   1.878   5.077 -1.4995  0.8800  2.5946
  136PVA    C4923111   2.035   1.818   5.278 -0.6545 -1.2347 -0.7893
  136PVA    H9723112   2.004   1.713   5.280  1.5846 -1.9319 -0.2268
  136PVA    H9823113   1.952   1.862   5.335  2.3901  0.3927  2.8622
  136PVA    C5023114   2.149   1.827   5.383 -0.8109  0.8421  0.2872
  136PVA    H9923115   2.237   1.784   5.334 -1.3469  0.6195 -0.4884
  136PVA    O1723116   2.185   1.964   5.394 -0.3380  0.2211 -0.3717
  136PVA   H10023117   2.202   1.987   5.487  0.6858  0.8333 -0.6923
  136PVA    C5123118   2.112   1.775   5.530 -0.0669  0.1497 -0.3722
  136PVA   H10123119   2.102   1.666   5.522 -3.5364  0.4730 -2.2947
  136PVA   H10223120   2.006   1.802   5.543 -1.6783 -2.8308 -4.8659
  137PVA     C123121   5.541   1.166   4.618 -0.0392  0.2375  0.1263
  137PVA     H123122   5.502   1.267   4.601  2.6535  2.1631  3.9545
  137PVA     H223123   5.618   1.193   4.691  0.1988 -0.9959  0.3534
  137PVA     C223124   5.611   1.116   4.492 -1.1696  0.2347 -0.2335
  137PVA     H323125   5.676   1.031   4.515  0.6606  1.5896 -0.2172
  137PVA     O123126   5.517   1.074   4.394  0.0800  0.1380  0.5727
  137PVA     H423127   5.461   1.040   4.466  0.1994  2.8283  2.0613
  137PVA     C323128   5.692   1.241   4.428  0.7961  0.2945  0.6698
  137PVA     H523129   5.759   1.288   4.501 -0.9106  3.6850  0.2309
  137PVA     H623130   5.632   1.332   4.426 -0.6249 -0.4580  3.5764
  137PVA     C423131   5.780   1.214   4.308  1.4943  0.1930 -0.1295
  137PVA     H723132   5.877   1.243   4.351  0.8381  1.1881  0.7070
  137PVA     H823133   5.767   1.110   4.275  0.3182  1.2408 -3.2596
  137PVA     C523134   5.786   1.314   4.183  0.1310  0.4228 -0.9385
  137PVA     H923135   5.801   1.416   4.222 -2.4802  0.4563  0.2099
  137PVA     O223136   5.661   1.319   4.116 -0.5740 -0.6742  0.0960
  137PVA    H1023137   5.585   1.336   4.175  1.7147 -0.2395  3.1992
  137PVA     C623138   5.891   1.284   4.076 -1.3598 -0.4539  0.6615
  137PVA    H1123139   5.988   1.248   4.112  0.7692  1.9903 -2.1695
  137PVA    H1223140   5.860   1.212   3.999 -1.9363  0.5504 -0.0751
  137PVA     C723141   5.945   1.407   3.997 -0.3096 -0.8317 -0.0480
  137PVA    H1323142   6.004   1.368   3.914  2.2808  1.5589  0.5258
  137PVA    H1423143   6.011   1.464   4.063 -1.5606 -0.8765  1.3058
  137PVA     C823144   5.836   1.516   3.937  0.1920  0.6479 -0.0977
  137PVA    H1523145   5.796   1.560   4.029  2.1560  0.8857  0.6879
  137PVA     O323146   5.726   1.452   3.874 -0.0467  0.5228  0.3103
  137PVA    H1623147   5.672   1.414   3.946  0.7005 -1.2782 -0.0416
  137PVA     C923148   5.912   1.618   3.854 -0.6524  0.2609  0.1385
  137PVA    H1723149   5.835   1.668   3.795 -0.1369  0.1714 -0.6253
  137PVA    H1823150   5.980   1.554   3.796 -0.3238  0.8545 -0.1366
  137PVA    C1023151   5.982   1.733   3.926 -0.7438  1.2084 -0.0727
  137PVA    H1923152   5.904   1.795   3.972  0.0472  2.0994  0.1175
  137PVA    H2023153   6.052   1.687   3.997 -2.9267  1.9020  2.7010
  137PVA    C1123154   6.062   1.819   3.813  0.6510 -0.8223  1.2639
  137PVA    H2123155   6.117   1.740   3.760  0.0746 -0.3031 -0.1790
  137PVA     O423156   5.973   1.897   3.728  0.4022 -0.0498 -0.0318
  137PVA    H2223157   5.921   1.841   3.668  0.3501 -1.1585  0.9923
  137PVA    C1223158   6.175   1.914   3.867 -0.2653  0.4810 -0.4953
  137PVA    H2323159   6.249   1.856   3.925 -2.5404 -2.1555 -0.0393
  137PVA    H2423160   6.229   1.949   3.778  0.9916  1.5194  0.6251
  137PVA    C1323161   6.144   2.042   3.933 -0.3585 -0.5040 -0.7359
  137PVA    H2523162   6.065   2.032   4.008  0.7798 -0.1992  0.5505
  137PVA    H2623163   6.093   2.109   3.863 -1.1770  0.1654  0.4656
  137PVA    C1423164   6.270   2.093   4.001  0.1621  0.1325 -0.2255
  137PVA    H2723165   6.346   2.095   3.921 -3.4788 -0.0943 -4.0214
  137PVA     O523166   6.311   2.007   4.114  0.0745 -0.6949  0.8750
  137PVA    H2823167   6.352   1.932   4.067  2.5112  1.0947 -0.1054
  137PVA    C1523168   6.265   2.237   4.053 -0.1343 -1.0061  0.6295
  137PVA    H2923169   6.362   2.257   4.101  1.0419 -2.0631 -1.1483
  137PVA    H3023170   6.190   2.256   4.131  1.8198 -0.3792  2.4603
  137PVA    C1623171   6.230   2.336   3.952  0.1571 -0.4124  0.1576
  137PVA    H3123172   6.294   2.326   3.864  0.4104  1.6499  0.0781
  137PVA    H3223173   6.125   2.316   3.930  0.3722 -1.8820  0.3340
  137PVA    C1723174   6.269   2.491   3.976 -1.3713  0.6222 -0.3023
  137PVA    H3323175   6.379   2.499   3.972 -1.4336  2.0894  0.1311
  137PVA     O623176   6.227   2.542   4.099  0.9429 -0.1075 -0.3841
  137PVA    H3423177   6.307   2.555   4.154  0.6059  1.8449 -0.2983
  137PVA    C1823178   6.213   2.599   3.870 -0.9345  0.2876 -0.5119
  137PVA    H3523179   6.105   2.594   3.889 -0.5982 -0.2504  1.4791
  137PVA    H3623180   6.242   2.702   3.895 -1.5739  0.6706 -1.2934
  137PVA    C1923181   6.247   2.591   3.718 -0.9555 -0.6673  0.4914
  137PVA    H3723182   6.260   2.484   3.695  1.5894 -1.3632  4.3241
  137PVA    H3823183   6.344   2.642   3.709 -2.1413  1.5398 -0.9063
  137PVA    C2023184   6.157   2.664   3.623 -0.6486  0.7858  0.5369
  137PVA    H3923185   6.052   2.634   3.637 -0.2956 -1.4869 -1.1353
  137PVA     O723186   6.163   2.803   3.628  0.5015 -0.2717 -0.1859
  137PVA    H4023187   6.073   2.839   3.637  0.6577 -0.2794  2.2110
  137PVA    C2123188   6.196   2.614   3.491  0.0208 -0.1111 -0.7293
  137PVA    H4123189   6.217   2.507   3.491  1.2398  0.1070 -1.3276
  137PVA    H4223190   6.293   2.657   3.463  0.0501  1.4245  1.5352
  137PVA    C2223191   6.114   2.651   3.368  0.2037 -0.3289 -0.8811
  137PVA    H4323192   6.083   2.756   3.376 -0.2083 -0.5109  0.0929
  137PVA    H4423193   6.025   2.587   3.361 -0.9136  0.8119  1.6342
  137PVA    C2323194   6.204   2.638   3.236  0.9911 -0.5889  0.3170
  137PVA    H4523195   6.263   2.731   3.239  1.2819 -0.7830  0.5865
  137PVA     O823196   6.272   2.511   3.228  0.9311 -0.1709  0.5212
  137PVA    H4623197   6.332   2.515   3.152 -2.8180  1.7901 -2.6492
  137PVA    C2423198   6.120   2.658   3.102  2.0063 -0.6613 -0.0873
  137PVA    H4723199   6.128   2.760   3.063  0.4990 -1.5866 -3.1392
  137PVA    H4823200   6.160   2.591   3.024 -0.9915  2.2791 -4.6827
  137PVA    C2523201   5.964   2.628   3.101 -0.4205  0.0525 -0.2748
  137PVA    H4923202   5.903   2.699   3.159 -1.8008 -0.0771 -1.5228
  137PVA    H5023203   5.955   2.535   3.159 -0.3565  0.3180  0.1700
  137PVA    C2623204   5.917   2.609   2.952 -0.5106  0.9717  0.1801
  137PVA    H5123205   5.975   2.542   2.888  0.5620  2.0787 -0.0342
  137PVA     O923206   5.794   2.545   2.965  0.8309 -0.6022 -1.4056
  137PVA    H5223207   5.833   2.470   3.012  3.6714  2.8061  2.3461
  137PVA    C2723208   5.891   2.742   2.872  1.0395  0.4745 -0.1023
  137PVA    H5323209   5.985   2.795   2.849  0.2961  1.3481 -1.2636
  137PVA    H5423210   5.807   2.809   2.893  1.5287  2.6528 -3.9962
  137PVA    C2823211   5.848   2.722   2.726 -0.6875 -0.8512  0.6585
  137PVA    H5523212   5.934   2.697   2.663 -0.9415 -0.8234  0.3016
  137PVA    H5623213   5.825   2.826   2.698 -1.3188 -1.3281 -0.6342
  137PVA    C2923214   5.715   2.645   2.687 -0.2778  0.4943 -0.0776
  137PVA    H5723215   5.644   2.651   2.770 -1.0250 -0.1888 -0.6569
  137PVA    O1023216   5.744   2.511   2.675 -0.3443  0.2552  0.1184
  137PVA    H5823217   5.750   2.473   2.764  0.0366 -2.9006 -1.0882
  137PVA    C3023218   5.646   2.684   2.552  0.8140  0.3265  0.6682
  137PVA    H5923219   5.559   2.620   2.529 -1.4167  2.7952  1.6428
  137PVA    H6023220   5.596   2.781   2.566  0.1819  0.1299 -0.1483
  137PVA    C3123221   5.748   2.692   2.423  1.0278 -0.2914  0.2339
  137PVA    H6123222   5.828   2.621   2.402  0.3122 -0.3237 -2.8367
  137PVA    H6223223   5.797   2.791   2.417  3.4349 -1.1872  2.8228
  137PVA    C3223224   5.648   2.685   2.304  0.3713  0.5345 -0.3965
  137PVA    H6323225   5.584   2.598   2.322 -0.3810  1.6590  3.0660
  137PVA    O1123226   5.569   2.796   2.289 -0.4241 -1.2429  0.1613
  137PVA    H6423227   5.502   2.762   2.350 -0.2865  1.9827  2.3751
  137PVA    C3323228   5.718   2.656   2.172 -0.5167 -1.0507 -0.2983
  137PVA    H6523229   5.782   2.567   2.167 -0.3385 -0.8669 -1.6589
  137PVA    H6623230   5.785   2.739   2.150 -1.7857  0.7966  2.3212
  137PVA    C3423231   5.633   2.651   2.041  0.2144  0.1256 -0.4412
  137PVA    H6723232   5.561   2.569   2.051 -0.7189  0.9808 -0.0693
  137PVA    H6823233   5.579   2.742   2.013 -2.2568 -1.2493 -0.3792
  137PVA    C3523234   5.720   2.604   1.919  0.2556 -0.6611 -0.7307
  137PVA    H6923235   5.713   2.497   1.944 -0.8204 -0.6825 -1.0418
  137PVA    O1223236   5.645   2.635   1.794  0.0237  1.0751  1.0710
  137PVA    H7023237   5.712   2.643   1.724  0.5732 -0.4683  1.3966
  137PVA    C3623238   5.864   2.657   1.923 -0.5261 -0.8599  0.6514
  137PVA    H7123239   5.856   2.758   1.882 -2.8331 -0.8678  0.9535
  137PVA    H7223240   5.912   2.671   2.020 -1.1432  0.6168  0.7637
  137PVA    C3723241   5.967   2.571   1.834 -0.0206  1.3957 -0.7652
  137PVA    H7323242   6.073   2.601   1.832 -0.0629  1.8853  1.3548
  137PVA    H7423243   5.934   2.594   1.732 -3.5925  5.1430  0.9290
  137PVA    C3823244   5.996   2.421   1.880  0.4361 -0.9990 -0.9606
  137PVA    H7523245   5.911   2.353   1.863  1.6627 -2.2656 -2.3332
  137PVA    O1323246   6.017   2.404   2.017  0.5491 -0.4148 -0.4668
  137PVA    H7623247   6.004   2.308   2.030  4.0760 -0.9722 -0.0413
  137PVA    C3923248   6.117   2.357   1.822 -0.7321 -0.3142 -0.6389
  137PVA    H7723249   6.108   2.364   1.712 -3.7609 -4.5685 -0.8952
  137PVA    H7823250   6.102   2.251   1.844  0.3166  0.3728  4.7298
  137PVA    C4023251   6.257   2.396   1.891  0.6392  0.2121  0.5578
  137PVA    H7923252   6.291   2.495   1.857 -2.1547 -0.4616 -5.5842
  137PVA    H8023253   6.245   2.396   2.000 -0.8998  1.4982  0.4292
  137PVA    C4123254   6.370   2.289   1.873 -0.3100  0.6905  0.3250
  137PVA    H8123255   6.372   2.267   1.766 -1.3056  3.6684 -0.4023
  137PVA    O1423256   6.338   2.165   1.939 -0.6789 -1.1953 -0.2353
  137PVA    H8223257   6.299   2.189   2.025  0.0257 -0.2042 -0.1627
  137PVA    C4223258   6.516   2.331   1.907  0.7888 -1.0884  0.5378
  137PVA    H8323259   6.548   2.427   1.865  3.4033  0.6355  5.5896
  137PVA    H8423260   6.524   2.365   2.011  1.9168 -0.3403  0.2253
  137PVA    C4323261   6.616   2.223   1.882  0.0267  0.6223 -0.6499
  137PVA    H8523262   6.600   2.164   1.791  2.7273 -3.7404  1.3780
  137PVA    H8623263   6.604   2.144   1.956 -0.6431  0.6099 -0.7659
  137PVA    C4423264   6.765   2.279   1.876 -0.6282 -0.3051  0.1225
  137PVA    H8723265   6.750   2.377   1.827  1.5235  0.5893  1.1333
  137PVA    O1523266   6.826   2.192   1.782  0.1727  0.2376  0.0920
  137PVA    H8823267   6.788   2.218   1.696 -1.9717  0.2315  0.9901
  137PVA    C4523268   6.844   2.275   2.016 -0.5225 -0.0438  0.3470
  137PVA    H8923269   6.839   2.172   2.054 -6.7675 -0.0669  0.5043
  137PVA    H9023270   6.790   2.345   2.081 -0.3209  2.0210 -1.6179
  137PVA    C4623271   7.000   2.318   2.004  0.0414 -1.1296  0.8537
  137PVA    H9123272   7.005   2.401   1.933  0.0418 -0.2019  1.9215
  137PVA    H9223273   7.048   2.238   1.947  3.5023 -0.1073  2.1149
  137PVA    C4723274   7.071   2.349   2.136 -0.5040  0.3127 -0.9203
  137PVA    H9323275   7.175   2.315   2.130 -0.2333  0.9912 -0.2532
  137PVA    O1623276   7.016   2.267   2.243  0.0126  0.3467 -0.8832
  137PVA    H9423277   6.929   2.238   2.208  0.9840 -1.1626 -2.1958
  137PVA    C4823278   7.056   2.500   2.157  0.4986  0.0187 -0.2035
  137PVA    H9523279   6.986   2.557   2.095  1.3578  1.6666  0.2895
  137PVA    H9623280   7.008   2.518   2.253 -2.1089 -0.7578 -1.2825
  137PVA    C4923281   7.202   2.570   2.151  0.8117  0.4582  0.7192
  137PVA    H9723282   7.277   2.491   2.146  0.4589  0.1624 -0.0403
  137PVA    H9823283   7.230   2.644   2.227 -3.8849 -0.4526  3.7732
  137PVA    C5023284   7.215   2.647   2.016 -0.5729  0.3270  0.0905
  137PVA    H9923285   7.195   2.571   1.940 -1.8539  2.2379 -1.5973
  137PVA    O1723286   7.114   2.742   2.016  1.2029 -0.8647  0.8064
  137PVA   H10023287   7.116   2.773   1.924 -0.6979 -1.2032  0.6088
  137PVA    C5123288   7.358   2.700   1.997  0.6216 -0.7500  0.5274
  137PVA   H10123289   7.421   2.724   2.084 -1.1391  0.1100  1.6412
  137PVA   H10223290   7.413   2.624   1.940 -1.9573 -1.0720 -1.7502
  138PVA     C123291   2.031   2.681   5.496  0.3932 -0.1687 -0.6996
  138PVA     H123292   1.981   2.719   5.406  0.6824 -1.2280 -1.3218
  138PVA     H223293   1.969   2.636   5.574  1.1881  0.9515  0.6140
  138PVA     C223294   2.107   2.799   5.571  1.0668  0.8467 -0.2287
  138PVA     H323295   2.087   2.784   5.678  2.8924 -0.5403 -0.0299
  138PVA     O123296   2.248   2.775   5.552 -0.3463 -0.4295 -0.2853
  138PVA     H423297   2.262   2.683   5.580  1.0186 -0.4866 -1.0644
  138PVA     C323298   2.074   2.947   5.521  0.1289 -0.1760  1.2064
  138PVA     H523299   2.133   2.955   5.429  0.7551  2.1761  1.7544
  138PVA     H623300   1.969   2.944   5.489 -0.9023  2.0981  3.9042
  138PVA     C423301   2.095   3.067   5.622  0.4635  0.1902  1.0915
  138PVA     H723302   2.194   3.049   5.666  3.9131 -0.4865 -5.6093
  138PVA     H823303   2.016   3.061   5.697  1.2672 -2.2149  1.8509
  138PVA     C523304   2.087   3.208   5.553  0.1185 -0.9780 -0.4610
  138PVA     H923305   2.084   3.294   5.620  1.7426  1.4222 -3.2349
  138PVA     O223306   2.221   3.222   5.498 -0.3428  0.3102 -0.4422
  138PVA    H1023307   2.245   3.132   5.472  1.8038  0.1830  1.6271
  138PVA     C623308   2.001   3.234   5.428 -0.8975 -0.2316  0.3089
  138PVA    H1123309   1.915   3.170   5.451  1.8349 -5.8496 -3.0005
  138PVA    H1223310   2.038   3.172   5.346 -2.9127 -1.5862  0.3566
  138PVA     C723311   1.954   3.370   5.386 -0.3277  0.2258 -0.8126
  138PVA    H1323312   1.855   3.364   5.339 -0.4400 -0.5122 -0.4968
  138PVA    H1423313   1.941   3.429   5.478 -4.9505 -2.4457  0.5767
  138PVA     C823314   2.041   3.461   5.285  0.2555 -0.1572  0.5616
  138PVA    H1523315   2.099   3.392   5.223 -1.0047  2.2224 -3.6243
  138PVA     O323316   2.124   3.556   5.356 -0.6929 -0.5783 -1.4081
  138PVA    H1623317   2.190   3.509   5.410 -0.1379  0.0447 -1.5250
  138PVA     C923318   1.962   3.533   5.169 -0.3091 -0.1937 -0.5245
  138PVA    H1723319   1.913   3.611   5.228  1.1700  0.7961 -0.5714
  138PVA    H1823320   1.867   3.489   5.134 -2.9830  5.2627 -1.2346
  138PVA    C1023321   2.056   3.575   5.060  0.1316 -0.8933  0.8479
  138PVA    H1923322   2.107   3.663   5.102  3.1395 -1.7505 -0.7285
  138PVA    H2023323   2.151   3.521   5.062  0.8226  0.0073  6.0083
  138PVA    C1123324   2.015   3.596   4.908 -0.5032 -0.9921 -0.2861
  138PVA    H2123325   2.061   3.686   4.866 -0.4627  0.1168  2.0142
  138PVA     O423326   1.879   3.607   4.884 -0.0496 -0.8218 -0.7245
  138PVA    H2223327   1.850   3.698   4.900  2.7268  0.1541 -0.6865
  138PVA    C1223328   2.076   3.488   4.809  0.5452 -0.1352 -0.5190
  138PVA    H2323329   2.048   3.382   4.819  1.2345 -0.0754  4.3055
  138PVA    H2423330   2.182   3.508   4.824  0.8828 -3.0168  1.7621
  138PVA    C1323331   2.055   3.514   4.657 -0.7741  0.3737 -1.7484
  138PVA    H2523332   2.138   3.577   4.623  2.7302 -2.5282  0.6575
  138PVA    H2623333   1.962   3.573   4.651 -1.0031  0.1112 -0.8774
  138PVA    C1423334   2.036   3.399   4.555 -0.5872  0.3218  0.1156
  138PVA    H2723335   2.134   3.350   4.558 -0.1062  0.8448 -3.1667
  138PVA     O523336   1.925   3.311   4.605 -0.0949  0.4275  0.1240
  138PVA    H2823337   1.858   3.377   4.632  0.9704  1.9267 -0.7547
  138PVA    C1523338   2.034   3.435   4.397 -0.4728  0.2378  0.7274
  138PVA    H2923339   2.125   3.488   4.368 -1.1062 -0.0361 -2.0594
  138PVA    H3023340   1.938   3.488   4.388 -1.6434 -1.7190  1.0132
  138PVA    C1623341   2.043   3.317   4.291 -1.1924 -0.6932 -1.1703
  138PVA    H3123342   2.136   3.258   4.293 -1.1101 -0.6512 -2.4580
  138PVA    H3223343   1.984   3.242   4.345  1.7812 -2.0315  0.4785
  138PVA    C1723344   2.013   3.334   4.140 -0.4621 -0.3862 -0.4860
  138PVA    H3323345   1.907   3.304   4.140  0.2412 -3.6613  2.3641
  138PVA     O623346   2.043   3.461   4.090  0.3039  0.3275  0.4185
  138PVA    H3423347   1.990   3.460   4.009  0.9472  2.9487 -0.1469
  138PVA    C1823348   2.087   3.236   4.040 -1.2081 -0.1137 -0.0628
  138PVA    H3523349   2.049   3.139   4.073 -0.5611  0.5521  2.9044
  138PVA    H3623350   2.195   3.230   4.058 -0.9727  0.3567 -1.2664
  138PVA    C1923351   2.061   3.229   3.888  0.2150  0.4436  0.3434
  138PVA    H3723352   1.959   3.227   3.850  1.4282  3.1508 -3.7025
  138PVA    H3823353   2.088   3.323   3.838 -2.4317  1.3749  0.5264
  138PVA    C2023354   2.128   3.115   3.800  0.1342  0.0320 -0.1879
  138PVA    H3923355   2.056   3.039   3.831 -0.3041  2.0372  4.5237
  138PVA     O723356   2.266   3.078   3.822 -0.2335  0.4541 -0.9996
  138PVA    H4023357   2.275   2.987   3.791 -0.2878  0.1910 -0.2725
  138PVA    C2123358   2.117   3.126   3.642  0.5181  0.3334 -0.4898
  138PVA    H4123359   2.174   3.206   3.594  3.1796 -1.5988 -0.7733
  138PVA    H4223360   2.017   3.152   3.604  1.3796 -3.3407 -6.7023
  138PVA    C2223361   2.154   2.992   3.564  0.1633 -0.5682 -0.1917
  138PVA    H4323362   2.250   2.952   3.598  0.3660 -0.3350 -0.4864
  138PVA    H4423363   2.086   2.906   3.577  0.2996 -0.3575  2.3124
  138PVA    C2323364   2.135   3.018   3.414  0.7991 -0.6427  1.1451
  138PVA    H4523365   2.046   3.081   3.405  1.5226  0.0839 -2.3098
  138PVA     O823366   2.235   3.095   3.363 -0.1913 -0.2998 -0.7307
  138PVA    H4623367   2.323   3.054   3.359  1.5895  2.1891  4.2682
  138PVA    C2423368   2.138   2.893   3.322  0.4634 -0.2385 -0.2991
  138PVA    H4723369   2.113   2.809   3.388 -1.2588 -0.3146 -0.9791
  138PVA    H4823370   2.239   2.868   3.290  0.6131  0.2371 -0.2098
  138PVA    C2523371   2.055   2.914   3.185 -0.7211 -0.6824  0.1179
  138PVA    H4923372   2.101   2.852   3.107  0.9457  0.5739  0.0642
  138PVA    H5023373   2.083   3.018   3.166 -1.4965 -0.6027 -0.6612
  138PVA    C2623374   1.904   2.896   3.180  0.3689  0.3248 -0.0241
  138PVA    H5123375   1.898   2.799   3.231  3.0831 -0.7027 -1.4136
  138PVA     O923376   1.839   2.981   3.266  0.1144 -0.7067 -0.0903
  138PVA    H5223377   1.907   3.042   3.299 -2.2603  0.9582  2.1763
  138PVA    C2723378   1.827   2.887   3.045  0.1419  0.2921 -1.0909
  138PVA    H5323379   1.863   2.815   2.970 -0.1947 -1.2558  0.1828
  138PVA    H5423380   1.840   2.986   2.999  1.6557  0.1095 -1.1348
  138PVA    C2823381   1.669   2.864   3.076  0.3243  0.5731  0.7992
  138PVA    H5523382   1.652   2.766   3.120  0.4467 -0.3962 -1.1939
  138PVA    H5623383   1.626   2.940   3.143  0.6365 -0.9903  2.8668
  138PVA    C2923384   1.572   2.876   2.956  0.0274 -0.3644  0.4989
  138PVA    H5723385   1.578   2.980   2.924 -2.4641 -1.0643 -2.7009
  138PVA    O1023386   1.623   2.795   2.852 -0.1140 -0.1384 -0.0683
  138PVA    H5823387   1.573   2.712   2.866 -3.7823  2.0982  1.5306
  138PVA    C3023388   1.432   2.822   2.988 -0.0539  0.3099  0.4315
  138PVA    H5923389   1.431   2.717   3.020  1.7583  0.5509  1.4481
  138PVA    H6023390   1.385   2.881   3.067  1.3534  2.1099 -0.0151
  138PVA    C3123391   1.331   2.837   2.860  0.1408 -0.7607  0.1835
  138PVA    H6123392   1.332   2.750   2.795 -1.5417 -2.2561  2.0233
  138PVA    H6223393   1.367   2.924   2.803  2.6730 -0.7822  1.6212
  138PVA    C3223394   1.179   2.840   2.907  1.0879 -0.1958  1.9992
  138PVA    H6323395   1.145   2.931   2.957  3.9248  0.7842  2.3152
  138PVA    O1123396   1.142   2.731   2.995 -0.1839  0.3178 -0.4415
  138PVA    H6423397   1.052   2.752   3.024 -1.8037 -1.0894 -3.8723
  138PVA    C3323398   1.087   2.846   2.784  0.3922  0.3712 -0.0040
  138PVA    H6523399   1.093   2.756   2.721 -0.9227  3.4207 -5.0331
  138PVA    H6623400   1.126   2.919   2.712  0.6631 -0.5306 -0.8033
  138PVA    C3423401   0.943   2.881   2.849 -0.1201  0.2288  0.4908
  138PVA    H6723402   0.916   2.817   2.934  1.4330  0.5112  1.2356
  138PVA    H6823403   0.939   2.985   2.884  1.6981  0.2529  0.6829
  138PVA    C3523404   0.827   2.834   2.748  0.4158  1.0627  0.7273
  138PVA    H6923405   0.731   2.826   2.801 -1.5719  2.5870 -2.3603
  138PVA    O1223406   0.843   2.689   2.730  0.2842 -0.5982 -0.3895
  138PVA    H7023407   0.851   2.661   2.822 -0.8297 -0.6988 -0.3041
  138PVA    C3623408   0.831   2.924   2.622  0.1502 -0.3494 -0.6698
  138PVA    H7123409   0.794   3.012   2.675 -0.8243 -2.5248  2.6085
  138PVA    H7223410   0.934   2.934   2.586  1.1372 -1.9410  1.4795
  138PVA    C3723411   0.736   2.900   2.498 -1.1603 -0.1712  0.1332
  138PVA    H7323412   0.634   2.885   2.537 -0.0560 -0.8931  3.0045
  138PVA    H7423413   0.728   2.988   2.433  0.4236  0.2251  0.4362
  138PVA    C3823414   0.762   2.772   2.416  0.1197 -0.2294  0.6381
  138PVA    H7523415   0.744   2.684   2.479 -0.9896 -2.2961 -2.3287
  138PVA    O1323416   0.900   2.759   2.377 -0.0143  0.1722  0.3185
  138PVA    H7623417   0.931   2.702   2.450 -1.6581  1.3913  2.0604
  138PVA    C3923418   0.675   2.765   2.286 -0.6089 -0.7930  1.1997
  138PVA    H7723419   0.731   2.784   2.194 -1.5782  3.4061  1.2562
  138PVA    H7823420   0.610   2.853   2.297  0.4452 -0.0816  2.0310
  138PVA    C4023421   0.613   2.626   2.271  0.6297 -0.5175  0.1069
  138PVA    H7923422   0.702   2.563   2.261  2.8891  2.5828 -1.2903
  138PVA    H8023423   0.558   2.603   2.363  2.4603  0.1671  1.4478
  138PVA    C4123424   0.522   2.616   2.150  0.1168 -1.1017  1.2167
  138PVA    H8123425   0.466   2.710   2.147  1.5789 -0.1435  2.4296
  138PVA    O1423426   0.611   2.586   2.032 -0.4626  0.2478  0.7426
  138PVA    H8223427   0.542   2.549   1.974  0.2032  0.0460  0.0648
  138PVA    C4223428   0.412   2.500   2.161 -0.4094  0.2305  0.3291
  138PVA    H8323429   0.350   2.526   2.074 -1.0290 -0.4316  0.5700
  138PVA    H8423430   0.446   2.400   2.134  1.1302  0.8083  0.0111
  138PVA    C4323431   0.320   2.510   2.286  0.9031 -0.2075 -0.0125
  138PVA    H8523432   0.339   2.610   2.326  0.2015 -0.0358 -0.1045
  138PVA    H8623433   0.365   2.449   2.365  3.4445  0.1250 -1.0866
  138PVA    C4423434   0.171   2.465   2.281 -0.5707 -1.3367  0.1619
  138PVA    H8723435   0.184   2.358   2.298  2.1250 -0.8391  1.7732
  138PVA    O1523436   0.122   2.497   2.151 -1.3450  0.1046 -0.2588
  138PVA    H8823437   0.048   2.434   2.146  1.4623 -3.6875  1.1352
  138PVA    C4523438   0.083   2.540   2.383  0.2157  0.5575 -0.2913
  138PVA    H8923439   0.119   2.643   2.393  0.4833  0.2999  1.9685
  138PVA    H9023440   0.101   2.489   2.478 -0.1366  1.0341  0.0336
  138PVA    C4623441   7.691   2.524   2.375 -0.5155 -0.3191  0.3662
  138PVA    H9123442   7.678   2.486   2.273  1.8175 -0.5394  0.0900
  138PVA    H9223443   7.660   2.433   2.428 -2.8853 -1.2402 -2.3411
  138PVA    C4723444   7.602   2.644   2.392  0.8952 -0.9119 -1.2389
  138PVA    H9323445   7.497   2.610   2.391  1.0348 -1.3768 -0.6478
  138PVA    O1623446   7.605   2.694   2.521 -0.5865 -0.0987 -0.0603
  138PVA    H9423447   7.652   2.777   2.503 -0.6647  0.1644  0.9412
  138PVA    C4823448   7.624   2.760   2.296 -0.2447 -0.4558 -0.1646
  138PVA    H9523449   7.725   2.802   2.301 -1.2681  2.0072  2.7865
  138PVA    H9623450   7.609   2.722   2.194 -1.5263 -3.7444  1.0918
  138PVA    C4923451   7.523   2.881   2.323  0.2592  0.5323 -0.0849
  138PVA    H9723452   7.419   2.856   2.300 -0.8486  0.4411  4.1825
  138PVA    H9823453   7.501   2.896   2.429 -0.9427 -1.1811 -0.0573
  138PVA    C5023454   7.547   3.009   2.242  0.2888 -0.3989  0.4844
  138PVA    H9923455   7.457   3.062   2.276  2.7387  1.4449  4.9330
  138PVA    O1723456   7.658   3.072   2.298 -0.7285 -0.4665 -0.2774
  138PVA   H10023457   7.688   3.155   2.256  2.3385 -1.6621 -0.7252
  138PVA    C5123458   7.565   2.998   2.089  1.0038  0.1897  0.4958
  138PVA   H10123459   7.585   2.893   2.066  2.3952 -0.1580  2.9503
  138PVA   H10223460   7.654   3.062   2.080 -0.1130  2.6120  4.0798
  139PVA     C123461   2.350   2.468   5.178  0.7251  0.1598  0.0505
  139PVA     H123462   2.309   2.374   5.139 -0.4592  0.0184  1.5312
  139PVA     H223463   2.453   2.433   5.195  1.3672  0.3808 -2.8806
  139PVA     C223464   2.343   2.586   5.069  0.6772 -0.0700  0.1311
  139PVA     H323465   2.356   2.677   5.129 -0.5939 -0.6593  1.3572
  139PVA     O123466   2.208   2.584   5.024  0.0642 -0.7443 -0.4470
  139PVA     H423467   2.215   2.639   4.943 -1.0606 -1.5456 -1.1179
  139PVA     C323468   2.441   2.592   4.948 -0.1000  0.5470 -0.7257
  139PVA     H523469   2.540   2.619   4.988  0.2625 -0.5521 -0.8503
  139PVA     H623470   2.461   2.489   4.918 -1.2687  0.4312 -1.1183
  139PVA     C423471   2.422   2.678   4.815 -0.0315 -0.2091  0.2961
  139PVA     H723472   2.334   2.631   4.770 -0.4564 -1.1670  2.0313
  139PVA     H823473   2.392   2.779   4.846  0.6893  0.5728 -1.4309
  139PVA     C523474   2.529   2.705   4.704 -0.0620  1.1809 -0.3368
  139PVA     H923475   2.515   2.618   4.638  0.6312 -0.4731  1.5806
  139PVA     O223476   2.661   2.667   4.750  0.2159 -0.6481  0.3822
  139PVA    H1023477   2.713   2.667   4.668  0.7864  0.1709  0.7428
  139PVA     C623478   2.529   2.838   4.624  0.8984  0.5922 -0.1767
  139PVA    H1123479   2.454   2.824   4.545  0.8364 -0.5749  0.0663
  139PVA    H1223480   2.491   2.905   4.702 -1.5738 -1.6854  0.7317
  139PVA     C723481   2.651   2.892   4.556  0.1534 -0.0575  0.4267
  139PVA    H1323482   2.688   2.822   4.480 -0.8052  2.1868 -2.3077
  139PVA    H1423483   2.735   2.903   4.626  0.3999  3.0389 -0.1860
  139PVA     C823484   2.634   3.033   4.485  0.6550  1.0056 -0.4469
  139PVA    H1523485   2.595   3.113   4.549 -2.3902 -1.6261  1.2372
  139PVA     O323486   2.770   3.067   4.453  0.4358  0.1615 -0.1701
  139PVA    H1623487   2.819   2.997   4.406 -0.4757 -0.2284 -0.5783
  139PVA     C923488   2.569   3.025   4.348 -0.2983  1.0006 -0.5678
  139PVA    H1723489   2.471   2.978   4.366 -0.7680  1.3668 -2.0463
  139PVA    H1823490   2.619   2.955   4.281 -0.7882 -0.2573  0.3245
  139PVA    C1023491   2.577   3.159   4.270  0.2329 -0.1996  0.0784
  139PVA    H1923492   2.601   3.233   4.348  1.9026 -2.9615  2.3669
  139PVA    H2023493   2.663   3.153   4.203 -0.6898 -1.0044 -1.0749
  139PVA    C1123494   2.450   3.177   4.195 -0.1859 -0.4544 -0.4972
  139PVA    H2123495   2.364   3.206   4.258 -0.3723  3.3236 -2.2323
  139PVA     O423496   2.397   3.067   4.117  0.0532 -0.6849 -0.8431
  139PVA    H2223497   2.352   3.105   4.039  1.7618  0.2199 -1.4375
  139PVA    C1223498   2.459   3.307   4.105  0.8009  0.1981  0.0633
  139PVA    H2323499   2.565   3.326   4.082  0.1923  3.3544 -0.5460
  139PVA    H2423500   2.426   3.274   4.005 -1.2122 -1.2340  1.1219
  139PVA    C1323501   2.385   3.438   4.146 -0.4325  0.7399 -0.7257
  139PVA    H2523502   2.419   3.473   4.244 -0.4701 -0.8689 -0.1094
  139PVA    H2623503   2.287   3.400   4.176  1.0069 -3.5174 -0.7677
  139PVA    C1423504   2.389   3.548   4.027 -0.4118 -0.2281  0.0361
  139PVA    H2723505   2.497   3.563   4.025 -0.0541 -2.0977  1.8491
  139PVA     O523506   2.304   3.657   4.067  0.6066  0.4224 -0.3406
  139PVA    H2823507   2.217   3.617   4.085  0.9843  0.0899  0.8580
  139PVA    C1523508   2.330   3.499   3.888 -0.7386 -0.0906 -0.5658
  139PVA    H2923509   2.389   3.413   3.852 -0.5831 -0.4516  0.5260
  139PVA    H3023510   2.221   3.485   3.890 -0.9972  1.1638 -2.5959
  139PVA    C1623511   2.334   3.596   3.770  0.3348 -0.1310 -0.2114
  139PVA    H3123512   2.440   3.618   3.750  1.2271 -3.9608 -0.5291
  139PVA    H3223513   2.278   3.689   3.786  0.3419 -0.5252  2.6360
  139PVA    C1723514   2.286   3.520   3.640 -0.6478 -0.8595 -1.2703
  139PVA    H3323515   2.315   3.415   3.625  2.4621 -0.1686 -0.6595
  139PVA     O623516   2.146   3.521   3.647  0.9694  0.1478 -0.2262
  139PVA    H3423517   2.106   3.524   3.558 -1.2279 -1.1380  0.6333
  139PVA    C1823518   2.347   3.605   3.518 -0.0239 -0.2456  0.0341
  139PVA    H3523519   2.352   3.714   3.529 -0.9173 -0.2740  0.8080
  139PVA    H3623520   2.451   3.575   3.499 -0.4185 -0.3841 -2.0962
  139PVA    C1923521   2.277   3.596   3.378  0.6376 -1.0460 -0.1789
  139PVA    H3723522   2.225   3.501   3.362  1.6327 -1.5513 -0.5567
  139PVA    H3823523   2.189   3.661   3.385  1.2451 -0.3342  1.4498
  139PVA    C2023524   2.361   3.624   3.244 -0.5045 -0.1543 -0.0086
  139PVA    H3923525   2.443   3.552   3.234  0.5364  0.9416  0.4220
  139PVA     O723526   2.426   3.754   3.281 -0.5326  0.3198  0.1608
  139PVA    H4023527   2.516   3.724   3.303 -0.3189  0.3147 -0.6747
  139PVA    C2123528   2.284   3.629   3.113 -0.2958 -0.5067  0.6174
  139PVA    H4123529   2.245   3.731   3.102 -1.3367 -1.0594 -1.4674
  139PVA    H4223530   2.196   3.564   3.102 -0.5847 -0.3303  1.7994
  139PVA    C2223531   2.372   3.603   2.982  0.2830  0.1517 -0.4192
  139PVA    H4323532   2.438   3.690   2.966 -0.2453  0.6793  0.1942
  139PVA    H4423533   2.433   3.514   2.998  0.8876  0.7747  0.9117
  139PVA    C2323534   2.303   3.564   2.839  1.0795 -1.2321  0.5939
  139PVA    H4523535   2.259   3.465   2.854  0.8167 -1.8642 -3.3669
  139PVA     O823536   2.186   3.646   2.805  0.1346  0.3827 -0.9494
  139PVA    H4623537   2.213   3.737   2.825 -2.8752  0.8473  1.6646
  139PVA    C2423538   2.391   3.533   2.711  0.0941 -0.3972  0.1069
  139PVA    H4723539   2.467   3.610   2.729 -2.4981  2.1946  0.7745
  139PVA    H4823540   2.457   3.445   2.711  0.9643  0.2069 -2.0402
  139PVA    C2523541   2.328   3.564   2.568  0.4000  0.3761  0.1226
  139PVA    H4923542   2.221   3.541   2.575  0.1538  1.2087 -0.6227
  139PVA    H5023543   2.323   3.671   2.541  3.2947  0.1758 -1.6473
  139PVA    C2623544   2.401   3.494   2.455  0.7518  0.6304  0.5990
  139PVA    H5123545   2.415   3.390   2.489  0.5687  0.6188  0.6392
  139PVA     O923546   2.534   3.536   2.452 -0.0976 -0.8462  0.7787
  139PVA    H5223547   2.561   3.554   2.543 -0.0078  0.3631  0.5315
  139PVA    C2723548   2.333   3.482   2.313  0.2903  0.2966 -1.3528
  139PVA    H5323549   2.377   3.393   2.267 -0.8249 -1.9442  1.6545
  139PVA    H5423550   2.356   3.569   2.250 -3.7860  1.7152 -1.1909
  139PVA    C2823551   2.185   3.441   2.315  1.1132 -0.7661 -0.7118
  139PVA    H5523552   2.185   3.367   2.395 -1.2130 -2.5750 -2.2552
  139PVA    H5623553   2.151   3.538   2.352  0.4059 -0.9514 -0.8712
  139PVA    C2923554   2.138   3.392   2.173 -0.1523  0.2481  0.1115
  139PVA    H5723555   2.168   3.289   2.150 -1.5910 -0.1334 -0.1140
  139PVA    O1023556   2.164   3.493   2.082  0.1512  0.8158  0.1333
  139PVA    H5823557   2.082   3.546   2.072  0.9529  1.6255 -4.9987
  139PVA    C3023558   1.987   3.363   2.170 -0.7470 -0.4378  0.0827
  139PVA    H5923559   1.968   3.319   2.269  2.3511 -1.7679  0.1926
  139PVA    H6023560   1.937   3.459   2.155 -1.7744 -1.0548 -0.5939
  139PVA    C3123561   1.939   3.271   2.058  0.1944 -0.0744 -0.7488
  139PVA    H6123562   1.984   3.177   2.092  2.8718  1.4869  0.3468
  139PVA    H6223563   1.992   3.304   1.968  1.1221  0.4235 -0.0305
  139PVA    C3223564   1.781   3.268   2.027 -0.0006  0.2107 -0.2371
  139PVA    H6323565   1.742   3.202   2.105 -1.1983  0.5141 -0.5576
  139PVA    O1123566   1.724   3.396   2.009  0.3787  0.3553 -0.0056
  139PVA    H6423567   1.628   3.382   2.022 -0.2963  0.7670 -3.4180
  139PVA    C3323568   1.749   3.182   1.905  0.5601 -0.7562  0.6704
  139PVA    H6523569   1.748   3.081   1.949 -3.0781 -0.8525  0.6497
  139PVA    H6623570   1.835   3.198   1.839 -1.4016  1.2736 -1.5655
  139PVA    C3423571   1.619   3.219   1.825  1.3337  0.0474 -0.3459
  139PVA    H6723572   1.531   3.185   1.881 -1.9374  0.4256 -4.7082
  139PVA    H6823573   1.606   3.326   1.805 -2.9852 -0.5422 -1.8287
  139PVA    C3523574   1.575   3.148   1.693 -0.1209  0.2411  0.2560
  139PVA    H6923575   1.470   3.179   1.688 -0.0239  1.0286  2.1759
  139PVA    O1223576   1.574   3.009   1.699  0.9487  0.4310  0.4620
  139PVA    H7023577   1.586   2.973   1.610 -4.4207 -0.1929 -0.3444
  139PVA    C3623578   1.648   3.173   1.558 -0.1479  0.4323 -0.9055
  139PVA    H7123579   1.751   3.195   1.589 -1.2500  2.2458  1.8657
  139PVA    H7223580   1.641   3.081   1.498 -0.0569  1.0194 -1.8247
  139PVA    C3723581   1.607   3.297   1.470  0.2752  0.5850  0.2735
  139PVA    H7323582   1.606   3.379   1.544  0.2426  0.2075  0.6989
  139PVA    H7423583   1.501   3.301   1.440  0.0867 -2.0860  0.3604
  139PVA    C3823584   1.714   3.318   1.361  0.8620  0.0398  0.4263
  139PVA    H7523585   1.813   3.297   1.403  1.5487  3.8938  1.1136
  139PVA    O1323586   1.681   3.229   1.256  0.8259 -0.0718 -0.1477
  139PVA    H7623587   1.617   3.271   1.195 -0.8524  0.3590  1.8163
  139PVA    C3923588   1.735   3.458   1.319  0.9261 -0.7051  0.2146
  139PVA    H7723589   1.749   3.531   1.399 -0.1187  0.3923 -0.5609
  139PVA    H7823590   1.646   3.498   1.269  0.8615  1.0873  1.6733
  139PVA    C4023591   1.863   3.469   1.223 -0.2698  0.2922 -0.3956
  139PVA    H7923592   1.859   3.406   1.133  1.0926 -1.7988  0.9305
  139PVA    H8023593   1.959   3.445   1.271  0.4737  0.6862 -1.6524
  139PVA    C4123594   1.865   3.612   1.179  0.3121  1.4738  0.5328
  139PVA    H8123595   1.765   3.649   1.153  0.5207  0.1732 -2.5682
  139PVA    O1423596   1.943   3.687   1.281 -0.0920  0.2991  0.0748
  139PVA    H8223597   1.888   3.742   1.339 -0.9662  0.5980 -0.9999
  139PVA    C4223598   1.944   3.636   1.036 -0.1148  0.4974 -1.2150
  139PVA    H8323599   2.019   3.712   1.060 -0.4483  0.7246 -0.8662
  139PVA    H8423600   2.010   3.553   1.008  1.2348  0.2541  2.1489
  139PVA    C4323601   1.852   3.708   0.927 -0.0727 -1.1879  1.0401
  139PVA    H8523602   1.850   3.814   0.956  0.1541 -0.6783 -0.6967
  139PVA    H8623603   1.746   3.681   0.932 -0.5480 -0.9977 -3.5786
  139PVA    C4423604   1.907   3.726   0.775  0.0479  0.1298  0.6910
  139PVA    H8723605   1.996   3.790   0.781  1.1838 -0.4683 -4.5607
  139PVA    O1523606   1.927   3.600   0.717  0.2089  1.1082 -0.1890
  139PVA    H8823607   1.989   3.606   0.642  1.2935  1.4742  0.7081
  139PVA    C4523608   1.803   3.798   0.683 -1.4121 -0.5307  0.1920
  139PVA    H8923609   1.765   3.883   0.741 -1.0934 -1.6024  2.0763
  139PVA    H9023610   1.715   3.736   0.663  1.0913 -3.7360 -2.1083
  139PVA    C4623611   1.856   3.848   0.550  0.3980  1.1846  0.5333
  139PVA    H9123612   1.882   3.762   0.488 -2.9934 -2.2853  3.4135
  139PVA    H9223613   1.954   3.896   0.562  1.6275 -1.0949  0.1013
  139PVA    C4723614   1.761   3.943   0.467  1.4051  0.9871 -0.8892
  139PVA    H9323615   1.769   4.040   0.518  1.9838 -0.1615  1.3349
  139PVA    O1623616   1.626   3.902   0.477  0.2986 -0.3635 -0.3862
  139PVA    H9423617   1.616   3.813   0.438  1.4596 -1.5602  1.8183
  139PVA    C4823618   1.780   3.952   0.312  1.0298  0.5202 -0.2663
  139PVA    H9523619   1.717   3.879   0.261  1.4955 -0.1649  0.1230
  139PVA    H9623620   1.722   4.045   0.298  4.4113  2.7195 -0.8895
  139PVA    C4923621   1.928   3.977   0.248 -0.2412 -1.0832  1.4276
  139PVA    H9723622   1.986   3.913   0.316 -0.4729 -1.4580  1.2790
  139PVA    H9823623   1.935   4.080   0.283 -3.0501  0.5647 -2.2038
  139PVA    C5023624   1.939   3.941   0.094  0.9957  0.6769  1.3010
  139PVA    H9923625   1.988   3.843   0.088  1.9996  1.2671 -0.7853
  139PVA    O1723626   2.011   4.030   0.017  1.2297 -0.8719 -0.1274
  139PVA   H10023627   2.100   4.028   0.057  0.1458  1.8471  2.8609
  139PVA    C5123628   1.796   3.909   0.031  0.9609  0.4587 -0.1904
  139PVA   H10123629   1.771   3.804   0.052 -2.1223  0.9482 -0.8592
  139PVA   H10223630   1.719   3.974   0.075  0.8173  3.1161 -3.9143
  140PVA     C123631   0.187   3.416   1.988  0.4752  0.1367  0.7238
  140PVA     H123632   0.130   3.446   1.898  0.8758  1.4160  0.8669
  140PVA     H223633   0.246   3.504   2.019 -0.7348  0.6326  1.7252
  140PVA     C223634   0.086   3.379   2.108  0.2152 -0.4359 -0.0500
  140PVA     H323635   0.047   3.281   2.077 -1.6347 -1.2040  3.9673
  140PVA     O123636   7.736   3.459   2.126 -0.3187 -0.5113  0.6189
  140PVA     H423637   7.688   3.447   2.210  2.1582 -5.3136  1.7047
  140PVA     C323638   0.136   3.359   2.255 -0.1665 -0.1676  0.2061
  140PVA     H523639   0.226   3.296   2.268 -0.1549  0.3259  3.2092
  140PVA     H623640   0.069   3.294   2.313  0.3413 -0.3916  0.5552
  140PVA     C423641   0.169   3.479   2.340  0.3059 -0.0008  0.4351
  140PVA     H723642   0.259   3.536   2.312  1.3926 -0.4562  2.7407
  140PVA     H823643   0.092   3.555   2.326  1.0645  1.7450  4.3582
  140PVA     C523644   0.166   3.457   2.494 -0.2113 -0.2073  0.2569
  140PVA     H923645   0.063   3.427   2.518  0.1291 -0.7404  1.0866
  140PVA     O223646   0.257   3.352   2.532 -0.2187 -0.4732 -0.5528
  140PVA    H1023647   0.350   3.380   2.532 -0.4387  0.4339  1.6115
  140PVA     C623648   0.209   3.584   2.562 -0.4584  0.8195  0.5612
  140PVA    H1123649   0.315   3.606   2.544 -0.2127 -1.6939 -1.8025
  140PVA    H1223650   0.149   3.668   2.526  2.1030  1.8822 -1.5355
  140PVA     C723651   0.209   3.583   2.715 -0.6722  0.1141  0.2088
  140PVA    H1323652   0.218   3.487   2.767 -2.2062 -0.3155 -0.2622
  140PVA    H1423653   0.102   3.604   2.728 -0.0494  3.1435  1.4181
  140PVA     C823654   0.298   3.689   2.787  0.0544  0.2530  0.6665
  140PVA    H1523655   0.238   3.779   2.804 -3.0385 -1.3537 -0.8876
  140PVA     O323656   0.404   3.750   2.698  0.2666 -0.7522 -0.7515
  140PVA    H1623657   0.420   3.831   2.749 -7.1953  0.1771  1.1841
  140PVA     C923658   0.352   3.646   2.925  0.2140 -0.5736  0.3585
  140PVA    H1723659   0.459   3.636   2.903  0.8045 -2.1677  3.4200
  140PVA    H1823660   0.333   3.543   2.955  0.1418  0.6084  5.2382
  140PVA    C1023661   0.321   3.758   3.034 -0.3064 -0.0520  1.2198
  140PVA    H1923662   0.318   3.854   2.980 -1.4295 -1.0781 -0.6664
  140PVA    H2023663   0.216   3.733   3.056 -1.4091  2.3005 -0.8622
  140PVA    C1123664   0.416   3.776   3.154 -0.8805  1.3590 -0.7969
  140PVA    H2123665   0.474   3.684   3.167 -2.6531  0.1843 -0.8596
  140PVA     O423666   0.504   3.893   3.148  0.0448 -0.8004  0.3622
  140PVA    H2223667   0.445   3.969   3.162 -2.3957 -2.4223 -0.4639
  140PVA    C1223668   0.338   3.802   3.289 -1.4785 -0.2096 -0.5566
  140PVA    H2323669   0.295   3.706   3.318 -1.4142 -0.7914 -2.2485
  140PVA    H2423670   0.249   3.864   3.273 -1.3016  0.6607  1.5526
  140PVA    C1323671   0.394   3.871   3.421 -0.0236 -0.2482 -0.4847
  140PVA    H2523672   0.409   3.978   3.406  3.2905 -0.0520  2.6904
  140PVA    H2623673   0.487   3.822   3.453 -1.1352 -0.5649  2.6726
  140PVA    C1423674   0.318   3.866   3.555 -0.2132 -0.7538 -0.1067
  140PVA    H2723675   0.303   3.764   3.591  3.2471 -1.3182  0.0754
  140PVA     O523676   0.182   3.914   3.535 -0.5053 -0.8040 -1.0608
  140PVA    H2823677   0.171   4.001   3.576  1.8882 -1.1394  0.5406
  140PVA    C1523678   0.395   3.947   3.665 -0.0129  0.5411 -0.9597
  140PVA    H2923679   0.490   3.900   3.692 -0.4904  1.8675  4.0957
  140PVA    H3023680   0.427   4.051   3.646  0.4690  1.8070  4.8631
  140PVA    C1623681   0.331   3.946   3.800  0.3069 -0.1762 -0.1494
  140PVA    H3123682   0.331   3.851   3.854 -3.1501  2.0679  4.5401
  140PVA    H3223683   0.228   3.979   3.781  0.6409 -0.3754 -2.6984
  140PVA    C1723684   0.410   4.035   3.902 -0.0015 -0.0799  0.2874
  140PVA    H3323685   0.516   4.015   3.880 -0.5296 -3.0405  0.0168
  140PVA     O623686   0.409   4.179   3.872 -0.1600  0.4451  0.5748
  140PVA    H3423687   0.488   4.226   3.907 -2.8287  6.7500 -0.4201
  140PVA    C1823688   0.365   4.024   4.055 -0.3713 -0.0564  0.5794
  140PVA    H3523689   0.292   4.106   4.049 -0.3646 -0.1724 -2.4871
  140PVA    H3623690   0.307   3.933   4.075  0.6530 -0.0511  4.3049
  140PVA    C1923691   0.463   4.063   4.171 -0.4174 -0.3806  0.2640
  140PVA    H3723692   0.515   4.158   4.155 -0.3232 -0.0858  2.1749
  140PVA    H3823693   0.547   3.991   4.167  2.3550  2.4707  2.2543
  140PVA    C2023694   0.399   4.073   4.310 -0.0094 -0.2886 -0.1802
  140PVA    H3923695   0.349   3.977   4.325 -0.2048 -0.2331 -0.4580
  140PVA     O723696   0.315   4.185   4.308  0.4493  0.0292  0.3975
  140PVA    H4023697   0.250   4.196   4.235 -1.7303 -1.7123  1.9423
  140PVA    C2123698   0.507   4.093   4.418  0.7967 -0.3106 -0.5674
  140PVA    H4123699   0.505   4.202   4.429  1.9027 -0.3197 -0.1806
  140PVA    H4223700   0.606   4.068   4.378  1.0534 -0.0643 -0.0884
  140PVA    C2223701   0.476   4.052   4.569  0.6401 -0.1750  0.2975
  140PVA    H4323702   0.368   4.033   4.559  0.4245  1.0614  0.0986
  140PVA    H4423703   0.520   3.954   4.593 -0.5302 -1.5266 -2.6256
  140PVA    C2323704   0.522   4.132   4.698  0.1067 -0.4541 -0.7723
  140PVA    H4523705   0.628   4.161   4.692 -0.2754  0.8500 -1.6670
  140PVA     O823706   0.449   4.262   4.708  0.2572  0.2228  0.9105
  140PVA    H4623707   0.491   4.331   4.653 -1.2539  0.4738  0.0321
  140PVA    C2423708   0.509   4.046   4.831 -0.8621 -1.4582 -0.3077
  140PVA    H4723709   0.451   3.957   4.806 -1.7796 -1.3310  1.2392
  140PVA    H4823710   0.615   4.030   4.852 -0.4284 -0.1555 -1.3769
  140PVA    C2523711   0.452   4.112   4.966 -0.4915 -1.0546  0.0310
  140PVA    H4923712   0.351   4.144   4.937  0.8984  2.9106 -1.0235
  140PVA    H5023713   0.508   4.205   4.979  0.3854 -1.9277  3.5488
  140PVA    C2623714   0.471   4.033   5.094 -0.6045 -0.5721 -0.3824
  140PVA    H5123715   0.410   3.945   5.073 -3.1031  0.6783  1.1853
  140PVA     O923716   0.605   3.984   5.119  0.4379 -0.1534  0.6107
  140PVA    H5223717   0.650   4.063   5.084 -3.5445  2.0406 -0.1383
  140PVA    C2723718   0.400   4.114   5.218  0.3586 -0.8256  0.4084
  140PVA    H5323719   0.299   4.133   5.181  1.8596  4.9717 -1.8411
  140PVA    H5423720   0.437   4.217   5.226  1.6975 -0.5192 -5.3054
  140PVA    C2823721   0.419   4.046   5.360 -0.4202  0.0911  0.9158
  140PVA    H5523722   0.417   3.937   5.342  0.4317  0.2097  0.0055
  140PVA    H5623723   0.514   4.079   5.403  0.3333 -2.4065  1.3403
  140PVA    C2923724   0.297   4.055   5.462  0.9170 -0.5911  0.9786
  140PVA    H5723725   0.223   3.986   5.420  0.1038  0.1859  1.1121
  140PVA    O1023726   0.239   4.188   5.472 -0.1596 -0.3423  0.2680
  140PVA    H5823727   0.174   4.198   5.544  1.1309 -1.2206  1.6026
  140PVA    C3023728   0.330   4.005   5.607  0.4611 -0.0305 -0.1403
  140PVA    H5923729   0.406   3.927   5.611 -2.2174 -2.8018  2.8097
  140PVA    H6023730   0.371   4.087   5.667  3.9490 -1.2419 -0.6469
  140PVA    C3123731   0.218   3.940   5.688 -0.2672  0.4337 -0.1108
  140PVA    H6123732   0.220   3.842   5.639  1.9001 -0.0666  0.8367
  140PVA    H6223733   0.115   3.975   5.676 -0.4556 -0.1709 -0.3202
  140PVA    C3223734   0.246   3.925   5.837 -0.3884 -0.1714 -0.4952
  140PVA    H6323735   0.334   3.861   5.851 -1.2778 -1.7227 -1.7288
  140PVA    O1123736   0.247   4.054   5.880  0.1267 -0.1387 -0.5376
  140PVA    H6423737   0.163   4.096   5.856  0.6773  0.2435 -1.8949
  140PVA    C3323738   0.120   3.860   5.900 -0.2041  0.3120  0.6273
  140PVA    H6523739   0.090   3.770   5.846 -0.9864  0.6691  0.4392
  140PVA    H6623740   0.038   3.932   5.888  0.4810  0.6636 -3.1831
  140PVA    C3423741   0.142   3.840   6.057 -0.1800 -0.6103 -1.2061
  140PVA    H6723742   0.173   3.928   6.115 -5.5090 -1.3550  3.6132
  140PVA    H6823743   0.054   3.805   6.111 -1.1245 -0.1015 -2.3676
  140PVA    C3523744   0.239   3.725   6.099 -0.5173  0.3054 -0.4363
  140PVA    H6923745   0.338   3.741   6.054 -1.3332  0.0052 -2.4744
  140PVA    O1223746   0.182   3.602   6.058  0.1335  0.2168 -0.5448
  140PVA    H7023747   0.088   3.594   6.082 -0.2514 -2.1876 -2.4021
  140PVA    C3623748   0.253   3.726   6.248 -0.3730 -0.6514 -1.7028
  140PVA    H7123749   0.223   3.821   6.292 -1.1354 -1.9949  0.8735
  140PVA    H7223750   0.187   3.658   6.304  1.2870  0.0605  1.3129
  140PVA    C3723751   0.389   3.682   6.313 -1.0870  0.5737  0.2628
  140PVA    H7323752   0.473   3.716   6.252  2.7548 -2.3815  3.3848
  140PVA    H7423753   0.372   3.574   6.314 -0.2630  0.3585 -2.2637
  140PVA    C3823754   0.424   3.725   6.460  1.3485 -0.5091 -0.4394
  140PVA    H7523755   0.366   3.660   6.526 -0.0996  1.5420  0.4416
  140PVA    O1323756   0.383   3.864   6.470  0.1508  1.2035  0.2505
  140PVA    H7623757   0.444   3.904   6.406 -0.1028 -2.6222 -2.7749
  140PVA    C3923758   0.562   3.725   6.493  0.1043 -0.4729  0.3009
  140PVA    H7723759   0.633   3.806   6.470  3.5800 -2.1656  3.8610
  140PVA    H7823760   0.615   3.640   6.448  4.5728  1.2463  1.7063
  140PVA    C4023761   0.591   3.743   6.638  0.9156  0.9469  1.3294
  140PVA    H7923762   0.555   3.842   6.667 -0.2783  1.0447 -0.3681
  140PVA    H8023763   0.537   3.667   6.695 -2.1119  2.3740  0.5433
  140PVA    C4123764   0.743   3.743   6.680  0.2553  0.0155 -0.0502
  140PVA    H8123765   0.782   3.656   6.626 -4.0678 -0.5005 -2.7697
  140PVA    O1423766   0.798   3.865   6.630 -0.0050 -0.5324 -0.1475
  140PVA    H8223767   0.893   3.862   6.650 -0.6102 -5.3428  3.9663
  140PVA    C4223768   0.751   3.726   6.835 -0.5236  0.7668 -0.6943
  140PVA    H8323769   0.677   3.789   6.885  1.3104  0.0743  3.3140
  140PVA    H8423770   0.739   3.620   6.863  1.4944  0.9282  1.0175
  140PVA    C4323771   0.886   3.747   6.902 -0.1892 -0.5337 -0.4396
  140PVA    H8523772   0.931   3.818   6.833 -2.7039  3.9067  2.0016
  140PVA    H8623773   0.928   3.646   6.907 -1.5549 -1.0841  2.8903
  140PVA    C4423774   0.895   3.795   7.049  0.0297 -0.1954 -0.6223
  140PVA    H8723775   0.820   3.750   7.115 -0.2424  0.8903 -0.1765
  140PVA    O1523776   0.853   3.936   7.038  0.3974  0.4001  0.3354
  140PVA    H8823777   0.936   3.985   7.029  0.0869  0.7141 -1.1518
  140PVA    C4523778   1.029   3.774   7.120 -0.0512  0.1772  0.5853
  140PVA    H8923779   1.107   3.832   7.069  0.4100 -0.2367  0.8007
  140PVA    H9023780   1.066   3.671   7.121 -0.0253  0.1821  0.0531
  140PVA    C4623781   1.033   3.789   7.269  0.7295 -0.4353 -0.1042
  140PVA    H9123782   0.989   3.886   7.297 -0.0571  0.7497 -4.7102
  140PVA    H9223783   0.970   3.706   7.304  0.1765 -0.2104 -0.5433
  140PVA    C4723784   1.177   3.779   7.337  0.5282  1.0153  1.2477
  140PVA    H9323785   1.213   3.676   7.324 -3.1943 -0.4868  1.4515
  140PVA    O1623786   1.258   3.872   7.271  0.2991  0.3270 -0.1002
  140PVA    H9423787   1.315   3.904   7.343  0.4900 -0.4083  0.0779
  140PVA    C4823788   1.179   3.819   7.482 -0.6716 -0.7260  0.3526
  140PVA    H9523789   1.178   3.928   7.496  0.5692 -1.0751  4.5144
  140PVA    H9623790   1.101   3.767   7.538  0.0719 -1.2822  0.8869
  140PVA    C4923791   1.295   3.762   7.559  0.1787 -0.9940  0.2256
  140PVA    H9723792   1.260   3.711   7.649 -0.3649 -1.4287 -0.2292
  140PVA    H9823793   1.359   3.689   7.509  2.8859  0.6507  1.0409
  140PVA    C5023794   1.386   3.871   7.620  1.0652 -0.4075 -0.6994
  140PVA    H9923795   1.332   3.937   7.688 -0.1456 -3.9491  2.0973
  140PVA    O1723796   1.428   3.945   7.511 -0.3380  0.4279  0.3532
  140PVA   H10023797   1.519   3.980   7.513 -0.5495  1.0421 -0.5086
  140PVA    C5123798   1.508   3.814   7.709  0.1463 -0.9497  0.4477
  140PVA   H10123799   1.479   3.726   7.767  2.2884 -1.7757  0.3260
  140PVA   H10223800   1.589   3.788   7.640 -0.4711  0.6751 -0.9583
  141PVA     C123801   0.531   3.289   1.615 -0.3591  0.7480 -0.6647
  141PVA     H123802   0.464   3.331   1.539 -0.5227  1.4875 -0.1291
  141PVA     H223803   0.561   3.188   1.587  1.2189  0.3842  1.9495
  141PVA     C223804   0.652   3.387   1.629 -0.2140  0.7881  0.5224
  141PVA     H323805   0.738   3.327   1.660 -1.0900  0.9361  3.5337
  141PVA     O123806   0.646   3.482   1.719 -1.2848 -0.2190  0.7338
  141PVA     H423807   0.576   3.544   1.692 -3.6163 -1.9512  2.4093
  141PVA     C323808   0.695   3.455   1.493  1.1428 -0.4344  0.5359
  141PVA     H523809   0.607   3.487   1.436  1.0219  2.8040  2.3214
  141PVA     H623810   0.713   3.563   1.501 -1.3318 -0.0890  3.2076
  141PVA     C423811   0.805   3.386   1.408 -0.4306 -1.1006  0.8378
  141PVA     H723812   0.870   3.341   1.484  1.6095  0.0618 -0.1255
  141PVA     H823813   0.758   3.307   1.348 -1.5712  1.3667 -1.7529
  141PVA     C523814   0.854   3.470   1.285  0.1142 -0.1552 -0.4551
  141PVA     H923815   0.765   3.476   1.221 -0.9550 -2.2963  0.7180
  141PVA     O223816   0.899   3.595   1.335  0.1809 -0.0608  0.0771
  141PVA    H1023817   0.974   3.570   1.391  1.0191 -0.2485 -1.0940
  141PVA     C623818   0.965   3.402   1.198  0.1099 -0.4316 -0.9105
  141PVA    H1123819   1.048   3.424   1.266 -3.4586  2.0458  3.2082
  141PVA    H1223820   0.957   3.293   1.207  4.0072 -0.7987 -0.2033
  141PVA     C723821   0.990   3.432   1.051  0.1474 -0.6812  1.2881
  141PVA    H1323822   1.014   3.538   1.035  1.0849 -0.6936  2.4862
  141PVA    H1423823   0.909   3.421   0.978  1.0120  1.6444 -0.1485
  141PVA     C823824   1.094   3.339   0.976  0.1310 -0.7713  0.3598
  141PVA    H1523825   1.040   3.244   0.978 -0.6286 -0.4841 -2.4678
  141PVA     O323826   1.211   3.325   1.059  0.2308  0.0772 -0.6725
  141PVA    H1623827   1.256   3.241   1.041  0.6435 -0.6956  3.2151
  141PVA     C923828   1.140   3.372   0.829  0.5998  0.2738 -1.1360
  141PVA    H1723829   1.194   3.467   0.840  2.5126 -0.8042 -0.8192
  141PVA    H1823830   1.054   3.393   0.765 -0.4241  0.0929  0.1363
  141PVA    C1023831   1.255   3.288   0.762 -0.6045 -0.2362  0.5224
  141PVA    H1923832   1.341   3.262   0.826  0.3584 -0.7260 -0.9089
  141PVA    H2023833   1.197   3.205   0.722 -1.3495  1.6175 -2.5627
  141PVA    C1123834   1.307   3.345   0.623  0.7954  0.9857 -0.0155
  141PVA    H2123835   1.210   3.358   0.573 -1.9981 -1.5918  4.1505
  141PVA     O423836   1.373   3.467   0.633 -0.3567  0.3495 -0.1866
  141PVA    H2223837   1.373   3.505   0.543 -2.0049 -0.7086 -0.6816
  141PVA    C1223838   1.394   3.230   0.564  0.7504  0.0485  0.3950
  141PVA    H2323839   1.477   3.236   0.635 -1.2497 -0.0654  2.8831
  141PVA    H2423840   1.343   3.134   0.581  1.6795  0.1006  4.8211
  141PVA    C1323841   1.440   3.257   0.419 -0.9138  0.3370 -0.9546
  141PVA    H2523842   1.519   3.331   0.434 -0.0847  0.1533 -3.8450
  141PVA    H2623843   1.366   3.298   0.349  1.7191  1.6975 -3.1448
  141PVA    C1423844   1.521   3.134   0.356  0.4741  0.6201 -1.4643
  141PVA    H2723845   1.594   3.103   0.432 -1.8182 -2.8322 -0.4167
  141PVA     O523846   1.592   3.175   0.241  0.3928  0.0050 -0.3937
  141PVA    H2823847   1.543   3.157   0.158  3.3906  2.0119 -2.8329
  141PVA    C1523848   1.415   3.024   0.301 -0.1611  0.5698 -0.4318
  141PVA    H2923849   1.354   3.057   0.216  0.9725  0.3185 -1.3750
  141PVA    H3023850   1.360   3.003   0.394 -0.5905 -0.3973 -0.8937
  141PVA    C1623851   1.476   2.888   0.265  0.6079  0.5368  0.1284
  141PVA    H3123852   1.577   2.894   0.223  0.7841 -1.5722  0.1440
  141PVA    H3223853   1.496   2.847   0.365  1.0272  1.2355  0.3395
  141PVA    C1723854   1.395   2.812   0.154 -1.1331 -0.0179  0.0233
  141PVA    H3323855   1.413   2.855   0.055 -3.0699 -1.6552 -1.1186
  141PVA     O623856   1.464   2.688   0.149 -0.3518 -0.6665  0.2763
  141PVA    H3423857   1.555   2.705   0.120 -0.5103 -0.3410 -0.0239
  141PVA    C1823858   1.250   2.788   0.168 -0.2299 -0.4232 -0.1207
  141PVA    H3523859   1.239   2.745   0.268  1.2473 -1.4008 -0.3426
  141PVA    H3623860   1.214   2.891   0.164  1.4346  0.5160  3.8718
  141PVA    C1923861   1.166   2.700   0.081  0.6207  1.3842  0.6268
  141PVA    H3723862   1.146   2.730   8.074  0.1368  3.9703  1.3925
  141PVA    H3823863   1.221   2.605   0.076 -1.8998 -0.3052  2.1990
  141PVA    C2023864   1.034   2.652   0.142  0.8226  1.2232 -0.1513
  141PVA    H3923865   1.051   2.590   0.231 -1.0177 -0.4476 -0.8676
  141PVA     O723866   0.971   2.773   0.182  0.2347 -0.6266 -0.1154
  141PVA    H4023867   1.042   2.808   0.238 -0.3034  0.9383 -0.3568
  141PVA    C2123868   0.915   2.576   0.073 -0.9135 -1.0156  0.7364
  141PVA    H4123869   0.956   2.510   8.093  0.4800 -1.1398  1.5351
  141PVA    H4223870   0.858   2.651   0.018 -1.0947 -0.5983  1.4859
  141PVA    C2223871   0.808   2.509   0.152 -0.1650  1.0015 -0.5445
  141PVA    H4323872   0.825   2.403   0.173 -1.2517  0.7415 -0.9105
  141PVA    H4423873   0.784   2.579   0.233 -4.6511 -0.9968  0.1757
  141PVA    C2323874   0.668   2.513   0.074  0.3587  0.4465 -0.0733
  141PVA    H4523875   0.627   2.605   0.118  1.7735  0.5221  1.1720
  141PVA     O823876   0.676   2.508   8.024 -0.1829  0.1694  0.5413
  141PVA    H4623877   0.652   2.416   8.005  1.6649 -0.3699  0.6290
  141PVA    C2423878   0.573   2.394   0.111 -0.0338  0.5658 -0.3629
  141PVA    H4723879   0.607   2.303   0.060 -4.9880 -1.6412 -0.2838
  141PVA    H4823880   0.579   2.379   0.219 -4.2011  3.0782  0.4461
  141PVA    C2523881   0.425   2.411   0.063  0.0404 -0.0887  0.2331
  141PVA    H4923882   0.382   2.492   0.122  1.7302  1.2074 -0.2505
  141PVA    H5023883   0.426   2.441   8.054  2.2058  1.2003  0.5738
  141PVA    C2623884   0.350   2.275   0.073  0.0272 -0.7769  0.4338
  141PVA    H5123885   0.351   2.251   0.180  1.4965  3.7250  1.6755
  141PVA     O923886   0.426   2.168   0.003  0.2966  0.0919 -0.0619
  141PVA    H5223887   0.454   2.095   0.061  1.4010  2.6775  2.9343
  141PVA    C2723888   0.209   2.279   0.017 -0.0204 -0.1192  0.0003
  141PVA    H5323889   0.205   2.327   8.016  1.6538  0.8972  0.3718
  141PVA    H5423890   0.144   2.343   0.078  0.4563  1.6206 -1.2272
  141PVA    C2823891   0.129   2.138   0.006  1.1291 -0.3578  0.3962
  141PVA    H5523892   0.209   2.067   8.076 -0.8922 -2.2191 -1.0057
  141PVA    H5623893   0.114   2.126   0.113  0.3863 -1.8175  0.1450
  141PVA    C2923894   7.750   2.149   8.028  0.2291  0.6105  0.7150
  141PVA    H5723895   7.682   2.224   8.070 -2.5282 -1.9974  1.2520
  141PVA    O1023896   0.015   2.207   7.901  0.4289 -0.7802  1.0266
  141PVA    H5823897   0.112   2.220   7.902  0.1042  2.1625  1.2308
  141PVA    C3023898   7.689   2.005   8.006 -1.0347 -0.0136  0.9838
  141PVA    H5923899   0.008   1.944   7.972 -0.1935 -0.4277  3.5672
  141PVA    H6023900   7.644   1.973   0.003  0.6325  0.9248  2.1524
  141PVA    C3123901   7.568   2.022   7.909  0.6352  0.2289  0.7461
  141PVA    H6123902   7.596   2.040   7.805 -1.6343 -0.9043 -0.1424
  141PVA    H6223903   7.520   2.118   7.933 -0.5951  0.1895 -1.2650
  141PVA    C3223904   7.459   1.912   7.922 -0.0703  0.0278  0.2282
  141PVA    H6323905   7.508   1.814   7.927 -4.6004 -2.4814  1.6411
  141PVA    O1123906   7.400   1.917   8.049  0.7985  0.6982 -0.5586
  141PVA    H6423907   7.483   1.935   8.096  2.1805  3.3157 -3.5875
  141PVA    C3323908   7.355   1.924   7.813  0.3914  0.9535 -0.2347
  141PVA    H6523909   7.256   1.937   7.858 -0.4400  3.4649 -2.5932
  141PVA    H6623910   7.347   2.021   7.763 -2.7822  1.8692  1.7997
  141PVA    C3423911   7.347   1.797   7.724  1.2214  1.4356  0.0078
  141PVA    H6723912   7.373   1.813   7.619  0.7582 -3.1557 -1.0463
  141PVA    H6823913   7.432   1.730   7.743 -2.1091 -2.4305  3.0685
  141PVA    C3523914   7.217   1.710   7.706  0.7270 -0.5756  0.3645
  141PVA    H6923915   7.174   1.699   7.806  2.0967 -0.2272  1.0258
  141PVA    O1223916   7.127   1.799   7.637 -0.2867  0.0157  1.1375
  141PVA    H7023917   7.058   1.732   7.625 -2.2549  1.8368  1.6885
  141PVA    C3623918   7.228   1.572   7.622  1.0823  0.1668  0.1409
  141PVA    H7123919   7.274   1.584   7.522  3.0691  0.2609  1.0182
  141PVA    H7223920   7.304   1.515   7.678  0.8604 -2.2236 -1.7883
  141PVA    C3723921   7.099   1.479   7.599  0.8754 -1.4426 -0.8073
  141PVA    H7323922   7.054   1.519   7.507 -0.2732  0.4667  0.5347
  141PVA    H7423923   7.029   1.473   7.683 -3.6889 -5.0003 -4.3198
  141PVA    C3823924   7.162   1.334   7.577  0.9982  0.6025 -0.5626
  141PVA    H7523925   7.237   1.324   7.656 -0.4823 -0.8554  0.7327
  141PVA    O1323926   7.227   1.333   7.444 -0.2774  0.1987  0.4076
  141PVA    H7623927   7.311   1.383   7.447  2.9845 -4.5108 -1.1422
  141PVA    C3923928   7.056   1.214   7.589 -0.0680  0.6452 -1.0474
  141PVA    H7723929   6.983   1.235   7.509  0.9941  5.1715 -1.0909
  141PVA    H7823930   7.021   1.201   7.692  2.8613  1.4176  0.1254
  141PVA    C4023931   7.130   1.083   7.553  0.3003  0.3270 -0.5111
  141PVA    H7923932   7.151   1.085   7.445 -1.2802  0.9031 -0.8352
  141PVA    H8023933   7.208   1.085   7.630  0.1607  0.3630 -0.3712
  141PVA    C4123934   7.047   0.950   7.586 -1.2601  0.4243  0.5203
  141PVA    H8123935   7.065   0.936   7.694 -1.1378  1.1754  0.6073
  141PVA    O1423936   6.914   0.961   7.529 -0.6433 -0.6404  1.0905
  141PVA    H8223937   6.864   1.033   7.570  0.7372  0.4976  0.8361
  141PVA    C4223938   7.113   0.826   7.521 -0.2650  0.2120  0.5011
  141PVA    H8323939   7.103   0.814   7.412 -0.1638 -3.8941  0.7749
  141PVA    H8423940   7.220   0.822   7.546 -0.7372 -2.4152  2.5896
  141PVA    C4323941   7.045   0.686   7.549 -1.7525 -0.5933 -0.1796
  141PVA    H8523942   6.948   0.686   7.498 -1.1722  3.3521 -1.6176
  141PVA    H8623943   7.011   0.681   7.653  0.5424 -1.1640  0.5920
  141PVA    C4423944   7.129   0.553   7.528 -1.0137  0.3709  1.4888
  141PVA    H8723945   7.209   0.552   7.603  0.1446 -0.5254  0.2825
  141PVA    O1523946   7.194   0.554   7.398 -0.5440 -0.3633  0.1628
  141PVA    H8823947   7.274   0.607   7.416  1.1151 -3.5319  3.3524
  141PVA    C4523948   7.058   0.413   7.549  0.5036  0.1717 -0.1569
  141PVA    H8923949   6.981   0.421   7.471 -0.4927 -0.0341  0.7796
  141PVA    H9023950   7.016   0.407   7.650  0.0548 -2.8083 -0.4509
  141PVA    C4623951   7.142   0.282   7.518  0.2067 -0.2463  1.0484
  141PVA    H9123952   7.237   0.288   7.572  1.1346 -2.8905 -0.1279
  141PVA    H9223953   7.160   0.292   7.410  1.0918 -0.2533  1.1894
  141PVA    C4723954   7.092   0.130   7.560 -0.3489 -0.5053 -0.2079
  141PVA    H9323955   7.057   0.117   7.663 -2.2271 -0.5112 -0.8012
  141PVA    O1623956   6.971   0.110   7.483  0.2611 -0.6661  0.5097
  141PVA    H9423957   6.937   0.199   7.464  1.7595 -0.6544 -3.0199
  141PVA    C4823958   7.193   0.012   7.531 -0.4299 -0.1175  0.3966
  141PVA    H9523959   7.175   7.674   7.425 -1.9046  0.3857  0.5222
  141PVA    H9623960   7.295   0.053   7.541 -1.3025  2.1274  0.6020
  141PVA    C4923961   7.176   7.562   7.607  0.3117  0.2497  0.1318
  141PVA    H9723962   7.068   7.549   7.615  0.0976  2.0707  0.5645
  141PVA    H9823963   7.194   7.581   7.713  4.4013  1.4055 -0.5702
  141PVA    C5023964   7.280   7.450   7.553 -0.0324 -0.8595  0.4862
  141PVA    H9923965   7.367   7.505   7.514 -1.3835  1.0372 -0.0177
  141PVA    O1723966   7.225   7.394   7.442  0.2362 -0.4367  0.3242
  141PVA   H10023967   7.282   7.428   7.371  2.6761 -4.7848 -0.1693
  141PVA    C5123968   7.317   7.343   7.650  0.0747  0.1790 -0.0569
  141PVA   H10123969   7.220   7.297   7.672 -1.8206  4.3124  1.1962
  141PVA   H10223970   7.343   7.368   7.754  0.9090  2.5054 -0.7675
  142PVA     C123971   1.289   4.434   7.865 -0.5264  0.7600 -0.2573
  142PVA     H123972   1.188   4.458   7.901 -0.9683  0.5486 -1.3045
  142PVA     H223973   1.320   4.526   7.815  1.5738  0.2081 -0.0515
  142PVA     C223974   1.376   4.414   7.998 -0.5463 -0.5381 -0.3738
  142PVA     H323975   1.312   4.428   8.086  2.2173  0.6312  1.5938
  142PVA     O123976   1.433   4.285   8.003 -0.2676  0.0341 -0.2019
  142PVA     H423977   1.459   4.271   7.910 -2.0139 -0.1350 -0.7021
  142PVA     C323978   1.493   4.514   8.027  0.6401 -0.3069 -0.3084
  142PVA     H523979   1.484   4.602   7.962 -4.9650  1.7587  2.6472
  142PVA     H623980   1.585   4.459   8.002  0.8074  1.3072 -3.9360
  142PVA     C423981   1.502   4.563   0.086 -0.7738  0.0393  0.0528
  142PVA     H723982   1.417   4.626   0.115  0.0447 -0.4789  4.1529
  142PVA     H823983   1.486   4.488   0.164 -0.0035  0.9098  1.0672
  142PVA     C523984   1.626   4.660   0.109  0.6863 -0.0786 -0.4198
  142PVA     H923985   1.714   4.595   0.095  0.5635 -0.1818 -0.7203
  142PVA     O223986   1.647   4.754   0.010  0.5661  0.7424  0.5058
  142PVA    H1023987   1.593   4.830   0.038 -2.1062 -1.2191  1.1292
  142PVA     C623988   1.644   4.743   0.247  0.1000 -1.1523 -0.0819
  142PVA    H1123989   1.583   4.834   0.247  0.4672 -0.9024  0.1762
  142PVA    H1223990   1.605   4.684   0.330  1.8392 -0.6830  1.1366
  142PVA     C723991   1.793   4.787   0.274 -0.5423  0.6088  0.4248
  142PVA    H1323992   1.823   4.845   0.185 -0.0326  0.1188  0.2730
  142PVA    H1423993   1.859   4.700   0.284 -0.7145  0.5226  0.8218
  142PVA     C823994   1.812   4.858   0.406  0.2524  0.1966 -0.2785
  142PVA    H1523995   1.749   4.788   0.462 -2.5519  1.3100 -1.8795
  142PVA     O323996   1.740   4.973   0.414 -0.8618 -0.6987 -0.2725
  142PVA    H1623997   1.700   4.950   0.328 -0.0330 -6.0673  0.4228
  142PVA     C923998   1.964   4.888   0.452 -0.2993  0.5462  1.0907
  142PVA    H1723999   2.020   4.807   0.404  2.5776  3.3890 -0.7602
  142PVA    H1824000   1.979   4.862   0.557 -0.6359 -1.6008  0.6505
  142PVA    C1024001   2.016   5.030   0.397  0.1848  0.1166 -1.1196
  142PVA    H1924002   1.944   5.101   0.440 -3.7421 -2.8952 -2.1046
  142PVA    H2024003   1.989   5.058   0.294 -6.5510  1.0241  0.4403
  142PVA    C1124004   2.157   5.070   0.427 -0.4491 -0.1038 -0.4818
  142PVA    H2124005   2.154   5.083   0.535 -1.0609  3.3517 -0.8087
  142PVA     O424006   2.255   4.968   0.387 -0.0485  0.0756 -0.1106
  142PVA    H2224007   2.338   4.989   0.432  0.4771 -1.4096 -0.3317
  142PVA    C1224008   2.183   5.203   0.367  0.9182  0.3694  1.2126
  142PVA    H2324009   2.210   5.161   0.269  1.1038  3.0873  0.0129
  142PVA    H2424010   2.093   5.264   0.352  0.4068 -0.6556 -0.0100
  142PVA    C1324011   2.299   5.278   0.434 -0.8851 -0.6165  0.6350
  142PVA    H2524012   2.373   5.198   0.448 -3.1113 -2.8159  0.4969
  142PVA    H2624013   2.264   5.316   0.530  1.6533  3.5082  0.1678
  142PVA    C1424014   2.355   5.387   0.346  0.3600 -0.1762 -0.1277
  142PVA    H2724015   2.358   5.349   0.243 -0.3861 -1.1179  0.1769
  142PVA     O524016   2.249   5.481   0.364 -0.2595  0.7670  0.7869
  142PVA    H2824017   2.174   5.440   0.318  0.4312  2.4981 -2.1425
  142PVA    C1524018   2.487   5.450   0.393  0.6639  0.6543 -0.8477
  142PVA    H2924019   2.472   5.510   0.484  3.6579  0.5477 -0.1809
  142PVA    H3024020   2.548   5.366   0.427  1.3628  2.0254  1.5880
  142PVA    C1624021   2.563   5.519   0.280  0.5494 -0.2366 -1.3195
  142PVA    H3124022   2.652   5.576   0.309  0.2963 -1.0915  1.3887
  142PVA    H3224023   2.612   5.448   0.212 -2.3147  0.1524 -4.0484
  142PVA    C1724024   2.481   5.610   0.178 -1.3861  0.1563 -0.6146
  142PVA    H3324025   2.422   5.550   0.108 -2.7489  2.2833 -1.4056
  142PVA     O624026   2.404   5.704   0.247 -0.7674 -0.2655 -0.4376
  142PVA    H3424027   2.350   5.637   0.293 -1.7135 -0.7195 -2.1079
  142PVA    C1824028   2.581   5.679   0.080  0.9823 -0.4711  0.3339
  142PVA    H3524029   2.645   5.751   0.132  0.4260  1.1321 -1.1098
  142PVA    H3624030   2.636   5.594   0.035 -2.0758 -3.0629  1.1036
  142PVA    C1924031   2.525   5.769   8.055  0.9539 -1.0685 -1.0692
  142PVA    H3724032   2.454   5.843   8.094  1.6315  0.3100 -2.3273
  142PVA    H3824033   2.464   5.712   7.984 -0.6662  1.7776 -2.1524
  142PVA    C2024034   2.638   5.845   7.987 -0.2487 -0.3894 -1.2438
  142PVA    H3924035   2.685   5.914   8.058  4.1414 -1.6511 -2.5748
  142PVA     O724036   2.741   5.762   7.933 -0.1665 -0.0551  0.5885
  142PVA    H4024037   2.705   5.754   7.843  3.0445  1.6513 -1.0235
  142PVA    C2124038   2.575   5.937   7.875 -0.4525  0.2149  0.3299
  142PVA    H4124039   2.487   5.988   7.915 -2.2725  1.5778 -4.6924
  142PVA    H4224040   2.541   5.865   7.799  4.1187 -0.6550 -1.2058
  142PVA    C2224041   2.688   6.038   7.833  0.5615  0.4622  0.5198
  142PVA    H4324042   2.710   6.110   7.913  2.5015 -2.3943  2.7582
  142PVA    H4424043   2.784   5.986   7.825  1.6803  1.5571  4.4636
  142PVA    C2324044   2.639   6.127   7.709  0.5169  0.2203  0.8363
  142PVA    H4524045   2.644   6.061   7.621  0.3452 -0.4308  1.3066
  142PVA     O824046   2.499   6.175   7.740 -0.7906 -0.4217  1.3989
  142PVA    H4624047   2.466   6.260   7.704 -1.3537  0.7398  4.4107
  142PVA    C2424048   2.731   6.250   7.682 -0.4021 -0.6011  0.7479
  142PVA    H4724049   2.725   6.339   7.746  0.4168  1.2275 -1.5940
  142PVA    H4824050   2.835   6.218   7.671 -0.3783 -0.8197  1.5732
  142PVA    C2524051   2.693   6.306   7.528 -0.0422 -0.7185 -0.8647
  142PVA    H4924052   2.603   6.260   7.485  0.1580  1.6002 -4.0996
  142PVA    H5024053   2.779   6.269   7.471 -0.7416 -0.1962 -2.2909
  142PVA    C2624054   2.700   6.460   7.496  0.5354 -0.3912 -0.6744
  142PVA    H5124055   2.618   6.496   7.561 -0.3414 -2.1395 -0.7537
  142PVA     O924056   2.818   6.534   7.507  1.0513 -0.0663  0.2135
  142PVA    H5224057   2.848   6.574   7.591 -0.2629  1.7943 -0.1212
  142PVA    C2724058   2.662   6.471   7.339 -0.7024 -1.4649 -0.5548
  142PVA    H5324059   2.570   6.420   7.307 -0.2386  0.4472 -6.0800
  142PVA    H5424060   2.746   6.429   7.283 -0.1466 -0.8153 -0.2191
  142PVA    C2824061   2.639   6.621   7.301  0.4864  0.0561 -0.5507
  142PVA    H5524062   2.565   6.639   7.380  1.9465  0.1129  0.8395
  142PVA    H5624063   2.728   6.680   7.324  0.8346 -1.4493  2.4406
  142PVA    C2924064   2.579   6.652   7.164 -0.3203 -0.6723 -0.4500
  142PVA    H5724065   2.551   6.553   7.125  0.2774 -1.7655  1.7518
  142PVA    O1024066   2.672   6.706   7.077 -0.0890 -0.4873 -1.0336
  142PVA    H5824067   2.639   6.797   7.062  0.6260  0.1890  1.1712
  142PVA    C3024068   2.464   6.757   7.173  0.4854  0.7111  0.4618
  142PVA    H5924069   2.385   6.748   7.248  0.5034 -0.3497  0.3646
  142PVA    H6024070   2.509   6.854   7.197 -0.4419  1.0443  0.8701
  142PVA    C3124071   2.383   6.794   7.036 -1.0594  1.1292  0.2695
  142PVA    H6124072   2.390   6.707   6.970 -3.6030 -0.1674  1.5813
  142PVA    H6224073   2.433   6.878   6.985  0.7905 -0.5600 -0.8321
  142PVA    C3224074   2.232   6.801   7.075 -1.3278 -0.3985 -1.0115
  142PVA    H6324075   2.205   6.741   7.163  0.9432  1.0442  0.7762
  142PVA    O1124076   2.150   6.751   6.971  0.2843  0.3178  0.3341
  142PVA    H6424077   2.120   6.825   6.915 -2.0545 -0.1530  0.8387
  142PVA    C3324078   2.200   6.963   7.079  0.2824  0.7833  1.3226
  142PVA    H6524079   2.229   7.017   6.988  0.6552  2.7343  2.5317
  142PVA    H6624080   2.259   7.019   7.153 -1.2322  3.1985  0.8258
  142PVA    C3424081   2.041   6.996   7.108 -0.3555  1.8136  1.6713
  142PVA    H6724082   1.969   6.956   7.035  2.1197  2.4867 -1.3742
  142PVA    H6824083   2.026   6.944   7.203 -2.1852  1.6544  1.3384
  142PVA    C3524084   1.999   7.136   7.143 -0.3164  0.5013  0.6838
  142PVA    H6924085   2.074   7.182   7.209  0.2413  0.7289 -0.0917
  142PVA    O1224086   1.978   7.219   7.024  0.2014 -0.2983 -0.4406
  142PVA    H7024087   2.051   7.282   7.035  1.6914 -1.8980 -0.6107
  142PVA    C3624088   1.860   7.128   7.219  0.8285 -0.2969  0.4572
  142PVA    H7124089   1.801   7.051   7.167 -0.3100  0.9553 -0.1740
  142PVA    H7224090   1.873   7.093   7.322 -1.2327 -3.5945 -0.2539
  142PVA    C3724091   1.770   7.266   7.228 -1.8005  0.7457 -0.1095
  142PVA    H7324092   1.829   7.356   7.247  0.5853 -0.2549 -2.1888
  142PVA    H7424093   1.734   7.284   7.126  0.8027  3.3052 -0.7097
  142PVA    C3824094   1.642   7.250   7.301  1.0639  0.1871 -0.2216
  142PVA    H7524095   1.601   7.150   7.280  0.0742  0.0866  1.9186
  142PVA    O1324096   1.669   7.255   7.441 -0.2599 -0.2942  0.9854
  142PVA    H7624097   1.583   7.277   7.481 -0.8768  1.6212 -1.1554
  142PVA    C3924098   1.532   7.345   7.258  0.1182 -0.9727  1.3029
  142PVA    H7724099   1.525   7.432   7.324 -1.7501  0.1852 -0.3145
  142PVA    H7824100   1.560   7.376   7.156 -0.3251 -6.1640 -0.7412
  142PVA    C4024101   1.396   7.285   7.270 -0.0686  0.6140  0.7111
  142PVA    H7924102   1.401   7.200   7.340  5.6578  0.2978  0.4274
  142PVA    H8024103   1.363   7.225   7.184  1.6244  0.3554  0.1906
  142PVA    C4124104   1.271   7.379   7.283  0.1122 -0.8911 -0.5152
  142PVA    H8124105   1.262   7.456   7.205  0.4441 -0.4540 -0.1224
  142PVA    O1424106   1.287   7.457   7.409  0.8068  0.3501  0.1728
  142PVA    H8224107   1.197   7.478   7.440  0.4793  2.8044 -2.0408
  142PVA    C4224108   1.133   7.306   7.300  0.2679 -0.6662  0.9003
  142PVA    H8324109   1.127   7.230   7.221  0.2672 -0.7817  1.0110
  142PVA    H8424110   1.148   7.227   7.375 -0.6756 -2.1560 -0.4052
  142PVA    C4324111   0.999   7.382   7.327 -1.0717 -0.7549  0.9506
  142PVA    H8524112   0.959   7.428   7.236  0.2958  0.0340  0.7144
  142PVA    H8624113   1.003   7.461   7.403 -4.4484  1.2380 -0.7133
  142PVA    C4424114   0.892   7.285   7.384  0.1152 -0.4351 -0.0910
  142PVA    H8724115   0.935   7.225   7.464  1.8345  1.1308  0.2305
  142PVA    O1524116   0.857   7.185   7.289  1.0337  0.8325  0.4303
  142PVA    H8824117   0.841   7.226   7.202 -0.6804  0.2630  0.4426
  142PVA    C4524118   0.762   7.361   7.443 -1.1538  0.1010 -0.0346
  142PVA    H8924119   0.712   7.385   7.348  1.7282  0.4031 -1.6127
  142PVA    H9024120   0.788   7.460   7.482 -1.1462 -0.4315  1.3671
  142PVA    C4624121   0.651   7.279   7.526  0.4456 -0.6292  0.5655
  142PVA    H9124122   0.643   7.191   7.461 -0.1644  1.6025 -2.6507
  142PVA    H9224123   0.662   7.255   7.632 -0.5802 -3.1085  0.1702
  142PVA    C4724124   0.501   7.335   7.532 -0.4940 -0.4223 -0.2708
  142PVA    H9324125   0.470   7.378   7.436  1.4033 -5.5090 -3.5956
  142PVA    O1624126   0.477   7.431   7.643 -1.0802 -0.0191 -0.4178
  142PVA    H9424127   0.401   7.381   7.676 -1.8273 -1.1677 -3.4994
  142PVA    C4824128   0.407   7.215   7.567  0.4242 -0.8386  0.4971
  142PVA    H9524129   0.458   7.120   7.547  1.3725 -0.6414  1.8228
  142PVA    H9624130   0.390   7.202   7.675 -0.9310  0.2861  0.4459
  142PVA    C4924131   0.274   7.216   7.476 -0.5092 -0.5269 -0.2113
  142PVA    H9724132   0.247   7.321   7.461 -2.8288 -1.1427 -0.7256
  142PVA    H9824133   0.312   7.169   7.384  1.9714 -4.0085  2.3336
  142PVA    C5024134   0.149   7.153   7.545 -0.0439  0.4628  1.0896
  142PVA    H9924135   0.160   7.044   7.532 -3.6171  0.2952 -2.7475
  142PVA    O1724136   0.147   7.206   7.682 -0.3659  0.3842  0.3513
  142PVA   H10024137   0.209   7.141   7.718 -1.4924 -0.3784  0.9968
  142PVA    C5124138   0.013   7.177   7.468 -0.5136  0.7499 -0.2224
  142PVA   H10124139   0.016   7.273   7.415  0.1811  0.0354 -1.5345
  142PVA   H10224140   7.744   7.109   7.389 -2.6582  3.8567 -2.2041
  143PVA     C124141   1.114   4.287   7.397 -0.6697  0.3148  0.0077
  143PVA     H124142   1.051   4.375   7.417  1.0965  1.3282  1.4232
  143PVA     H224143   1.066   4.199   7.441 -3.6927  0.6208 -2.2881
  143PVA     C224144   1.155   4.274   7.252 -0.0830 -1.2345  0.6779
  143PVA     H324145   1.260   4.303   7.252 -0.1700 -0.7660  3.1962
  143PVA     O124146   1.142   4.139   7.200  0.9527  0.1155  0.3510
  143PVA     H424147   1.129   4.080   7.276  1.1848 -1.5662 -0.8740
  143PVA     C324148   1.065   4.362   7.158 -0.5273 -0.4744 -0.4379
  143PVA     H524149   1.056   4.466   7.192 -3.8171 -1.4594  2.2268
  143PVA     H624150   0.957   4.349   7.171 -0.5260  1.5426  2.8133
  143PVA     C424151   1.114   4.361   7.009  0.2250 -1.2574  0.3916
  143PVA     H724152   1.222   4.376   7.022  0.1731  0.2314 -0.6622
  143PVA     H824153   1.097   4.259   6.972 -2.6755 -0.9974  0.8292
  143PVA     C524154   1.056   4.469   6.913 -0.1694 -0.4589 -0.6716
  143PVA     H924155   1.073   4.558   6.975 -1.6792 -1.6705  1.6161
  143PVA     O224156   0.917   4.449   6.909 -0.0255 -0.2520  0.5144
  143PVA    H1024157   0.864   4.530   6.913 -0.0098 -0.2392  0.4659
  143PVA     C624158   1.103   4.474   6.765  0.0137  0.2182  0.5227
  143PVA    H1124159   1.024   4.421   6.712  0.1981 -1.4151  1.7977
  143PVA    H1224160   1.100   4.578   6.728  1.5490 -0.3814 -1.4565
  143PVA     C724161   1.247   4.420   6.731  0.0659 -0.1476 -0.9499
  143PVA    H1324162   1.306   4.393   6.820  0.8765  1.3361 -1.0166
  143PVA    H1424163   1.241   4.330   6.668  1.2939  0.3118 -1.7660
  143PVA     C824164   1.358   4.512   6.671  0.6059  0.0198  0.9935
  143PVA    H1524165   1.395   4.578   6.750  3.3797 -0.7780  0.4647
  143PVA     O324166   1.307   4.587   6.566  0.2322 -0.1901  0.4684
  143PVA    H1624167   1.383   4.603   6.508  0.7343 -6.2678 -1.3476
  143PVA     C924168   1.498   4.461   6.643 -0.4560  1.3806 -0.5420
  143PVA    H1724169   1.533   4.440   6.541  3.5845 -0.2516  0.9758
  143PVA    H1824170   1.502   4.367   6.700 -4.5921  1.9010  1.0118
  143PVA    C1024171   1.615   4.526   6.718  1.1680 -0.7284  1.2560
  143PVA    H1924172   1.623   4.625   6.671  0.0380 -1.4811 -0.6086
  143PVA    H2024173   1.588   4.540   6.824 -0.2924 -0.1770  0.8363
  143PVA    C1124174   1.755   4.456   6.705 -0.4801  0.8723  0.6528
  143PVA    H2124175   1.764   4.451   6.596  0.0670 -4.6795  0.6624
  143PVA     O424176   1.755   4.315   6.745  0.3269 -0.1289 -0.0548
  143PVA    H2224177   1.680   4.272   6.701 -1.0272  3.3220 -1.5288
  143PVA    C1224178   1.897   4.508   6.734  0.6711 -0.0654 -0.4022
  143PVA    H2324179   1.896   4.617   6.723  0.2243  0.2864  2.4456
  143PVA    H2424180   1.933   4.477   6.833 -0.7638 -0.6269 -0.0311
  143PVA    C1324181   2.010   4.458   6.634 -0.8432 -0.5655  0.1310
  143PVA    H2524182   2.014   4.494   6.531  2.0751 -5.1980 -1.6666
  143PVA    H2624183   2.015   4.350   6.616  3.7314 -0.0730 -3.2451
  143PVA    C1424184   2.151   4.480   6.699 -0.2780  0.1611  0.5767
  143PVA    H2724185   2.150   4.405   6.779 -0.3805  0.5033  0.8999
  143PVA     O524186   2.145   4.617   6.750 -0.7257  0.1419 -0.7480
  143PVA    H2824187   2.233   4.646   6.719  1.0489 -3.3247  0.5722
  143PVA    C1524188   2.268   4.449   6.598  0.2336  0.1743 -0.3830
  143PVA    H2924189   2.352   4.464   6.667 -0.0890  3.1165 -0.5117
  143PVA    H3024190   2.260   4.342   6.577  1.1523  0.0396 -0.1036
  143PVA    C1624191   2.302   4.535   6.471 -1.5191  0.5424 -0.3032
  143PVA    H3124192   2.330   4.639   6.492  1.9621 -0.6445  1.8984
  143PVA    H3224193   2.219   4.534   6.400  1.1594  0.1126 -3.7464
  143PVA    C1724194   2.414   4.467   6.374 -0.2517 -0.3030  0.1418
  143PVA    H3324195   2.375   4.379   6.320 -2.0674  0.5314  0.0050
  143PVA     O624196   2.537   4.429   6.444 -0.4444 -0.0511 -1.5740
  143PVA    H3424197   2.598   4.499   6.417  0.1581  0.0188 -0.1096
  143PVA    C1824198   2.458   4.563   6.265 -0.1788 -0.5860 -0.1389
  143PVA    H3524199   2.372   4.610   6.216  1.4708  1.9931 -0.7282
  143PVA    H3624200   2.500   4.654   6.310 -1.2736 -0.0511 -0.1777
  143PVA    C1924201   2.563   4.525   6.147  0.5218 -0.3637 -0.3066
  143PVA    H3724202   2.649   4.472   6.188  0.0996 -1.0393 -0.2843
  143PVA    H3824203   2.604   4.617   6.103 -2.2648  0.8022 -0.6933
  143PVA    C2024204   2.493   4.455   6.022  0.7048  0.2579  0.4350
  143PVA    H3924205   2.460   4.518   5.939 -0.4474 -1.8168 -0.7765
  143PVA     O724206   2.387   4.366   6.070  0.8675 -0.1655  0.4865
  143PVA    H4024207   2.422   4.280   6.042  1.6272  1.3747 -4.1866
  143PVA    C2124208   2.591   4.357   5.944  0.4057  0.6825  0.0525
  143PVA    H4124209   2.652   4.320   6.028 -2.7326  0.2034  2.3067
  143PVA    H4224210   2.660   4.399   5.869 -2.0778 -2.5838 -4.4718
  143PVA    C2224211   2.531   4.227   5.875  0.0545 -0.4948  1.0036
  143PVA    H4324212   2.446   4.178   5.924  0.3413 -3.3299 -1.0847
  143PVA    H4424213   2.499   4.262   5.776 -1.1670 -0.3882  1.4172
  143PVA    C2324214   2.637   4.120   5.821 -0.0233  0.0915 -0.4799
  143PVA    H4524215   2.714   4.155   5.751 -1.4443  0.7625 -1.7691
  143PVA     O824216   2.552   4.036   5.750 -0.7566 -0.5285 -0.6315
  143PVA    H4624217   2.472   4.067   5.797 -0.2440  3.7474 -2.1038
  143PVA    C2424218   2.705   4.037   5.938 -0.6090 -1.0485  0.7078
  143PVA    H4724219   2.777   4.112   5.973 -0.7066  0.6810 -2.4929
  143PVA    H4824220   2.637   4.016   6.021 -3.5155  0.4569 -1.1607
  143PVA    C2524221   2.793   3.905   5.928 -0.5736 -0.7678  1.0758
  143PVA    H4924222   2.856   3.910   5.838 -2.3331  1.4287 -0.1685
  143PVA    H5024223   2.719   3.835   5.889 -0.8816 -1.3361  2.6362
  143PVA    C2624224   2.884   3.843   6.042  0.5273 -0.2645  0.7710
  143PVA    H5124225   2.802   3.785   6.087  0.0092 -1.6035 -1.7402
  143PVA     O924226   2.938   3.942   6.132 -0.6796 -0.2897 -0.1685
  143PVA    H5224227   2.946   3.892   6.216  0.0086  1.2789  0.7574
  143PVA    C2724228   2.997   3.730   6.025 -0.9147 -0.1828  0.0668
  143PVA    H5324229   3.045   3.744   5.928 -0.0238  1.0144  0.6527
  143PVA    H5424230   2.939   3.639   6.003 -3.6033  0.8977  2.0628
  143PVA    C2824231   3.107   3.703   6.136 -0.2331  0.1512  0.8920
  143PVA    H5524232   3.093   3.779   6.215  2.0119  1.1511  0.4085
  143PVA    H5624233   3.091   3.609   6.190  0.6610  1.2854  3.3151
  143PVA    C2924234   3.255   3.682   6.081 -0.7012 -0.3062 -0.6039
  143PVA    H5724235   3.311   3.624   6.156 -3.5090 -0.1221  1.8242
  143PVA    O1024236   3.245   3.625   5.957  0.2680 -0.4592 -0.1642
  143PVA    H5824237   3.322   3.567   5.942  1.6553  1.8916 -3.4444
  143PVA    C3024238   3.318   3.824   6.064 -0.5510 -0.2945 -0.5996
  143PVA    H5924239   3.342   3.865   5.965 -0.3392  3.1512  0.7579
  143PVA    H6024240   3.234   3.883   6.102  0.7685 -0.1821  2.3716
  143PVA    C3124241   3.439   3.834   6.159  0.3267  0.9001  0.0623
  143PVA    H6124242   3.513   3.759   6.129  2.5010  3.6528 -2.0705
  143PVA    H6224243   3.403   3.786   6.251  1.3392 -1.8793 -0.9162
  143PVA    C3224244   3.489   3.979   6.177  0.4835  0.2612  0.3330
  143PVA    H6324245   3.552   3.981   6.267  3.1041 -0.8880 -1.3768
  143PVA    O1124246   3.561   4.024   6.058 -0.5980  0.5666 -0.8491
  143PVA    H6424247   3.653   4.050   6.075 -1.1085  2.5544 -0.8164
  143PVA    C3324248   3.373   4.071   6.209 -0.3727  0.1639 -0.4596
  143PVA    H6524249   3.339   4.089   6.106  0.0707  0.1616 -0.6122
  143PVA    H6624250   3.308   4.017   6.278  1.5675 -0.2442  1.1530
  143PVA    C3424251   3.400   4.214   6.274  0.1659 -0.5288  0.3496
  143PVA    H6724252   3.357   4.192   6.372 -3.4401  3.3631 -0.1006
  143PVA    H6824253   3.508   4.237   6.272 -0.1481  1.8842 -4.3504
  143PVA    C3524254   3.309   4.338   6.240 -0.5276 -0.3470  0.2142
  143PVA    H6924255   3.216   4.285   6.215  1.8237 -4.2963 -0.9577
  143PVA    O1224256   3.360   4.385   6.113  0.2389 -0.4070 -0.4384
  143PVA    H7024257   3.414   4.308   6.088  1.5219  0.5052 -0.5750
  143PVA    C3624258   3.304   4.440   6.348  0.0628  0.0825  0.3661
  143PVA    H7124259   3.228   4.406   6.419 -1.5054  0.3348 -1.1208
  143PVA    H7224260   3.404   4.445   6.392 -0.1758 -0.2093  0.9593
  143PVA    C3724261   3.261   4.586   6.301  0.5909 -0.0070 -0.5526
  143PVA    H7324262   3.192   4.584   6.216  1.1312 -1.4740 -0.9927
  143PVA    H7424263   3.357   4.635   6.283  0.5564 -0.4087 -1.8936
  143PVA    C3824264   3.211   4.669   6.418  0.0681  0.4624 -1.1806
  143PVA    H7524265   3.231   4.776   6.410 -1.5183  1.2541  2.9508
  143PVA    O1324266   3.276   4.640   6.540 -0.0323  0.5894  0.5194
  143PVA    H7624267   3.264   4.544   6.554 -0.4450  0.3686 -1.0919
  143PVA    C3924268   3.054   4.650   6.435  0.5974  0.3402 -0.0468
  143PVA    H7724269   3.027   4.545   6.447 -0.6336  0.7510  1.0019
  143PVA    H7824270   3.008   4.683   6.341  1.5438  1.2654 -0.2086
  143PVA    C4024271   2.990   4.734   6.551 -0.6403 -0.1107  0.8325
  143PVA    H7924272   3.037   4.724   6.649  1.3137 -0.0402 -0.0525
  143PVA    H8024273   2.994   4.837   6.513 -0.6370 -0.3311  0.2174
  143PVA    C4124274   2.838   4.696   6.570  0.2305 -0.1801  0.1026
  143PVA    H8124275   2.833   4.590   6.595 -0.7427 -0.0224  0.6081
  143PVA    O1424276   2.772   4.768   6.674  1.1329  0.1022  0.2430
  143PVA    H8224277   2.738   4.855   6.648 -4.7723 -1.2487  2.0931
  143PVA    C4224278   2.765   4.712   6.432 -0.0441  0.0923  0.7205
  143PVA    H8324279   2.797   4.653   6.346 -0.8638 -2.6695  2.1786
  143PVA    H8424280   2.663   4.690   6.465  0.8922 -4.8167  1.0012
  143PVA    C4324281   2.775   4.861   6.386  0.4702 -0.3257 -0.1593
  143PVA    H8524282   2.730   4.933   6.456  1.9927  2.6927 -2.0752
  143PVA    H8624283   2.874   4.906   6.373 -1.1826  4.0690  0.9317
  143PVA    C4424284   2.733   4.878   6.234  0.5786 -0.4396 -0.3742
  143PVA    H8724285   2.740   4.792   6.167 -2.2311 -1.3723  0.3960
  143PVA    O1524286   2.594   4.908   6.233  0.5920 -0.4948  0.1993
  143PVA    H8824287   2.585   5.004   6.224 -2.5683 -0.4635  2.2305
  143PVA    C4524288   2.796   4.999   6.155 -0.4340 -0.6884 -0.8287
  143PVA    H8924289   2.799   5.080   6.229 -1.2995 -0.5131 -0.9729
  143PVA    H9024290   2.724   5.044   6.086 -0.2024 -0.1076 -0.7022
  143PVA    C4624291   2.930   4.980   6.096  0.4469 -0.4727  0.1867
  143PVA    H9124292   3.014   4.972   6.167 -0.8308 -1.2564  1.6840
  143PVA    H9224293   2.943   4.889   6.036 -1.3171 -0.0467 -0.8974
  143PVA    C4724294   2.979   5.095   5.994  0.4254 -0.5928 -0.1394
  143PVA    H9324295   3.076   5.056   5.958  1.6853  1.5043  0.8155
  143PVA    O1624296   2.880   5.134   5.898 -0.1313  0.0036 -0.0305
  143PVA    H9424297   2.842   5.219   5.928  2.4822  1.9505 -1.7849
  143PVA    C4824298   3.011   5.227   6.072 -0.4299 -1.0821 -0.6399
  143PVA    H9524299   2.917   5.272   6.108  0.6244  2.0658 -1.5362
  143PVA    H9624300   3.074   5.203   6.158  0.7428  1.4343 -0.7052
  143PVA    C4924301   3.076   5.346   5.993 -0.9505 -0.1739  0.4861
  143PVA    H9724302   3.154   5.303   5.929 -0.8432  3.2106 -1.9115
  143PVA    H9824303   3.007   5.370   5.911  1.3089  0.3648 -1.3608
  143PVA    C5024304   3.123   5.476   6.065  0.6574  0.1134 -0.2880
  143PVA    H9924305   3.037   5.540   6.087 -0.0293 -1.3672  1.6698
  143PVA    O1724306   3.169   5.451   6.196 -0.4347  0.2865  0.0311
  143PVA   H10024307   3.186   5.536   6.242 -3.5410  1.5535 -0.9378
  143PVA    C5124308   3.235   5.552   5.991 -0.5195 -0.3832 -0.8795
  143PVA   H10124309   3.235   5.652   6.035 -1.4811 -1.6812  2.4122
  143PVA   H10224310   3.198   5.559   5.888  0.2945 -1.5136 -1.2653
  144PVA     C124311   7.302   6.520   0.060  0.4389  0.1482 -0.2852
  144PVA     H124312   7.259   6.599   8.095 -2.1382 -1.0170 -0.0779
  144PVA     H224313   7.269   6.428   0.011  1.9095 -0.7245  0.2968
  144PVA     C224314   7.222   6.545   0.183  0.2559 -1.0107  0.0753
  144PVA     H324315   7.195   6.650   0.191  3.3649 -0.1788  1.4544
  144PVA     O124316   7.291   6.506   0.294 -0.8625 -0.7801 -0.6126
  144PVA     H424317   7.300   6.410   0.278 -2.7629 -0.6213 -3.0654
  144PVA     C324318   7.074   6.488   0.205 -0.2436  0.0851  1.0826
  144PVA     H524319   7.064   6.381   0.182  0.2270  0.4260 -0.9037
  144PVA     H624320   7.008   6.545   0.139 -3.0722 -0.2263  3.4493
  144PVA     C424321   7.016   6.498   0.356 -0.6775  0.1662  0.4669
  144PVA     H724322   7.050   6.599   0.383  0.4080 -0.7473  2.8655
  144PVA     H824323   7.076   6.429   0.417  0.4851  1.7789  1.1945
  144PVA     C524324   6.858   6.487   0.379 -1.1251 -0.6609 -0.7488
  144PVA     H924325   6.850   6.386   0.337 -1.4467 -1.1952  0.5632
  144PVA     O224326   6.793   6.584   0.287  0.1511 -0.0634  0.7508
  144PVA    H1024327   6.781   6.529   0.207 -1.3792  5.3188 -3.2927
  144PVA     C624328   6.771   6.512   0.512  1.0041  0.0555 -0.6033
  144PVA    H1124329   6.821   6.485   0.606 -1.4800  0.1714  0.8180
  144PVA    H1224330   6.754   6.617   0.537  3.7662  0.4115  0.1047
  144PVA     C724331   6.632   6.435   0.533 -0.2652 -0.0654  0.3729
  144PVA    H1324332   6.656   6.328   0.528  2.9967  0.2564  4.2533
  144PVA    H1424333   6.575   6.473   0.447  2.8230  2.1764 -0.9031
  144PVA     C824334   6.546   6.458   0.667 -0.0558  0.2007 -0.0279
  144PVA    H1524335   6.584   6.418   0.762  0.0132 -1.1574 -0.6017
  144PVA     O324336   6.547   6.597   0.662 -0.2784 -0.0519  0.2418
  144PVA    H1624337   6.615   6.628   0.599 -0.3134  0.9431  0.6844
  144PVA     C924338   6.407   6.407   0.650  2.3077 -0.0323  0.9465
  144PVA    H1724339   6.408   6.300   0.627 -0.4847  0.6384 -3.3757
  144PVA    H1824340   6.360   6.457   0.565  2.1721 -0.2021  0.9208
  144PVA    C1024341   6.313   6.443   0.774  0.2783  0.6820 -1.0186
  144PVA    H1924342   6.343   6.401   0.870 -4.4308  3.0629  1.8712
  144PVA    H2024343   6.315   6.552   0.786  1.8704  0.3481  2.8765
  144PVA    C1124344   6.162   6.373   0.764 -0.3302  0.9315 -0.2909
  144PVA    H2124345   6.194   6.268   0.764  1.3575  1.3810  2.0277
  144PVA     O424346   6.073   6.398   0.657  0.0153 -0.3134 -0.4115
  144PVA    H2224347   6.029   6.473   0.700  0.9273 -2.1742  4.4465
  144PVA    C1224348   6.069   6.382   0.895  0.2101  0.2813 -0.4700
  144PVA    H2324349   6.123   6.363   0.989  0.9119  1.9201 -0.5026
  144PVA    H2424350   6.020   6.478   0.918  0.8948 -0.1302  3.4848
  144PVA    C1324351   5.952   6.269   0.893  0.9225 -0.8902 -0.4405
  144PVA    H2524352   5.986   6.169   0.923  1.5241 -0.7290 -0.5824
  144PVA    H2624353   5.905   6.256   0.794  0.0088 -1.4554  0.0482
  144PVA    C1424354   5.836   6.299   0.999 -0.3567 -0.6943  0.4238
  144PVA    H2724355   5.897   6.303   1.090  0.2880  0.8444 -0.0448
  144PVA     O524356   5.763   6.413   0.959  0.0741 -0.7416 -1.0720
  144PVA    H2824357   5.718   6.388   0.876 -1.3675 -0.7188 -0.3227
  144PVA    C1524358   5.739   6.187   1.035 -0.4208 -0.0459  0.0315
  144PVA    H2924359   5.801   6.104   1.073  0.0964 -0.0188 -0.7246
  144PVA    H3024360   5.696   6.152   0.940 -1.4397  1.0908  0.0680
  144PVA    C1624361   5.627   6.216   1.141 -0.4764  1.7867 -0.6317
  144PVA    H3124362   5.678   6.201   1.236 -1.9355  6.1701  1.0742
  144PVA    H3224363   5.607   6.324   1.134  2.8972  2.6431  1.0082
  144PVA    C1724364   5.503   6.127   1.129  0.1487 -0.1573  0.3590
  144PVA    H3324365   5.542   6.030   1.096  2.8564  1.2814 -1.0530
  144PVA     O624366   5.423   6.183   1.030 -1.1617  0.1791  0.6537
  144PVA    H3424367   5.490   6.177   0.959 -3.3518 -4.1968 -1.5130
  144PVA    C1824368   5.400   6.117   1.244  0.8797 -0.3165  0.1325
  144PVA    H3524369   5.442   6.064   1.331 -0.7883  1.9589  2.4829
  144PVA    H3624370   5.398   6.215   1.294 -0.6606  0.2098 -0.9048
  144PVA    C1924371   5.246   6.081   1.214  0.3937 -0.4582 -1.0315
  144PVA    H3724372   5.240   5.990   1.152 -1.8628  0.7486 -2.7128
  144PVA    H3824373   5.208   6.145   1.134 -3.2500 -1.8414 -0.5772
  144PVA    C2024374   5.143   6.085   1.328  0.4173  0.1462 -0.4155
  144PVA    H3924375   5.194   6.145   1.404 -0.6779 -1.5168  1.7270
  144PVA     O724376   5.136   5.956   1.381 -0.8023 -0.0122  0.1936
  144PVA    H4024377   5.131   5.955   1.478  0.8010  0.6276  0.3174
  144PVA    C2124378   4.989   6.127   1.324 -0.2990  0.3770 -0.2720
  144PVA    H4124379   4.909   6.051   1.321  0.5553 -0.5351 -0.4052
  144PVA    H4224380   4.971   6.163   1.222 -1.5618 -2.5603 -1.1969
  144PVA    C2224381   4.931   6.244   1.422  0.6416 -0.9729  0.2243
  144PVA    H4324382   4.927   6.206   1.525 -1.6411 -4.4812 -0.9841
  144PVA    H4424383   5.010   6.319   1.434 -2.6867  2.8286  0.1001
  144PVA    C2324384   4.802   6.315   1.366  1.0513  0.4189  0.4472
  144PVA    H4524385   4.740   6.238   1.319  3.3682 -1.0754 -0.3901
  144PVA     O824386   4.726   6.360   1.479 -0.0427 -0.2893  0.2188
  144PVA    H4624387   4.652   6.413   1.447  0.3091 -0.3533 -0.7346
  144PVA    C2424388   4.823   6.441   1.271 -0.2558 -0.5996  0.1081
  144PVA    H4724389   4.865   6.525   1.327 -0.5931 -1.2322  1.3336
  144PVA    H4824390   4.897   6.415   1.194 -0.1236  2.1920 -0.8167
  144PVA    C2524391   4.706   6.484   1.171 -0.3359  0.7317  0.4101
  144PVA    H4924392   4.632   6.548   1.220 -1.1764 -1.5790  2.3644
  144PVA    H5024393   4.647   6.391   1.162 -1.2232  1.3467 -0.3410
  144PVA    C2624394   4.741   6.533   1.032  0.3737 -0.9476  1.1191
  144PVA    H5124395   4.837   6.491   0.998 -2.0251 -3.9188 -2.7699
  144PVA     O924396   4.744   6.680   1.049 -0.0553 -0.1373 -0.6911
  144PVA    H5224397   4.793   6.709   1.128 -2.2394 -0.5446  0.9127
  144PVA    C2724398   4.637   6.491   0.925  0.6876  0.3138 -0.3179
  144PVA    H5324399   4.534   6.515   0.956 -0.0568 -0.6458 -1.8980
  144PVA    H5424400   4.624   6.382   0.920 -2.6106  0.6135 -0.9157
  144PVA    C2824401   4.662   6.543   0.780 -0.0683 -0.0619 -0.1965
  144PVA    H5524402   4.647   6.651   0.776 -0.1461  0.0401  1.8619
  144PVA    H5624403   4.766   6.517   0.755 -0.1482  1.6941 -2.7110
  144PVA    C2924404   4.572   6.464   0.672 -0.3003 -1.0694 -0.0858
  144PVA    H5724405   4.620   6.366   0.677  0.6294 -0.6120  4.4070
  144PVA    O1024406   4.442   6.490   0.715 -1.0726  0.0300 -1.0986
  144PVA    H5824407   4.410   6.582   0.716 -0.8544  0.2086  2.3507
  144PVA    C3024408   4.577   6.512   0.524  0.5720  0.4640 -0.6253
  144PVA    H5924409   4.680   6.531   0.491  0.1399  1.6488 -1.3629
  144PVA    H6024410   4.520   6.603   0.503  0.0817  0.5027  0.7606
  144PVA    C3124411   4.513   6.410   0.428 -0.5007 -0.2953 -0.8807
  144PVA    H6124412   4.539   6.305   0.445 -1.6203 -0.2695  1.2753
  144PVA    H6224413   4.413   6.404   0.473 -0.3833 -1.1025 -0.7164
  144PVA    C3224414   4.514   6.465   0.280 -0.3491 -0.4292 -0.3106
  144PVA    H6324415   4.621   6.476   0.258 -0.3407 -0.8422 -0.4874
  144PVA    O1124416   4.434   6.589   0.265  0.4847  0.6144  0.3696
  144PVA    H6424417   4.469   6.628   0.184 -1.8892  1.2563 -0.4377
  144PVA    C3324418   4.431   6.359   0.198 -0.4077  0.0341 -0.6189
  144PVA    H6524419   4.326   6.369   0.227 -0.2736  0.2628 -0.2022
  144PVA    H6624420   4.471   6.261   0.228 -0.0783  0.4042  0.1694
  144PVA    C3424421   4.442   6.382   0.048 -0.3891  0.5372  0.6948
  144PVA    H6724422   4.425   6.485   0.014  1.1658  1.5854  2.8515
  144PVA    H6824423   4.549   6.371   0.025 -0.7994 -0.0099 -1.1272
  144PVA    C3524424   4.371   6.280   8.055  0.7448  0.3777 -0.9643
  144PVA    H6924425   4.283   6.248   0.016  1.0284  2.5997  0.8285
  144PVA    O1224426   4.462   6.169   8.027  0.6100  0.1256 -0.6863
  144PVA    H7024427   4.533   6.156   8.092 -2.2116  2.1405  3.2810
  144PVA    C3624428   4.321   6.332   7.921 -1.3889  1.1678 -0.5045
  144PVA    H7124429   4.271   6.429   7.925  1.9215  3.0412 -1.2942
  144PVA    H7224430   4.399   6.382   7.863  0.6938  0.9418  1.9140
  144PVA    C3724431   4.249   6.213   7.852  0.1105 -0.4001 -0.4735
  144PVA    H7324432   4.157   6.196   7.909  1.3656 -2.6432  1.0194
  144PVA    H7424433   4.299   6.116   7.868  1.1901  0.2635  0.2762
  144PVA    C3824434   4.204   6.218   7.707 -1.0701 -0.2753  0.5877
  144PVA    H7524435   4.290   6.271   7.666 -3.3389  0.1604 -4.2183
  144PVA    O1324436   4.086   6.300   7.698  0.1178 -0.6131 -0.2322
  144PVA    H7624437   4.074   6.295   7.794 -2.5880  1.8120 -0.3022
  144PVA    C3924438   4.207   6.092   7.620  0.6059 -0.2379  0.4942
  144PVA    H7724439   4.118   6.038   7.654 -1.2520  0.6721 -2.4962
  144PVA    H7824440   4.291   6.023   7.637  1.1976  0.5561  0.8217
  144PVA    C4024441   4.157   6.114   7.474 -1.1457  0.2238 -0.5176
  144PVA    H7924442   4.065   6.172   7.488 -1.0831  0.1743  0.0895
  144PVA    H8024443   4.228   6.188   7.435 -0.4163  0.7595  1.7193
  144PVA    C4124444   4.150   5.999   7.373  0.0098 -1.0413  0.2174
  144PVA    H8124445   4.097   5.927   7.436 -0.2362 -0.1065  1.1164
  144PVA    O1424446   4.268   5.936   7.351 -0.0525  0.4043 -0.2252
  144PVA    H8224447   4.332   5.969   7.417 -0.9159  5.2269 -1.3508
  144PVA    C4224448   4.088   6.031   7.236 -0.0256 -0.6434 -0.8683
  144PVA    H8324449   4.009   6.101   7.264  0.9221 -0.5862  1.8961
  144PVA    H8424450   4.160   6.075   7.165  0.8048 -4.5634 -2.7300
  144PVA    C4324451   4.024   5.908   7.152  0.2787  0.0747 -0.0394
  144PVA    H8524452   4.089   5.820   7.148 -2.5442 -2.1237 -3.4332
  144PVA    H8624453   3.941   5.871   7.213  0.6969  0.4738  0.7892
  144PVA    C4424454   4.002   5.920   6.996 -0.4343  0.0948  0.8458
  144PVA    H8724455   3.939   6.003   6.961 -0.6322 -0.6509 -0.6611
  144PVA    O1524456   4.137   5.944   6.947  0.1154  0.5032  0.4497
  144PVA    H8824457   4.186   5.860   6.939  1.6923  1.2670  1.5214
  144PVA    C4524458   3.949   5.793   6.925  0.7811  0.4903 -0.5023
  144PVA    H8924459   3.870   5.749   6.987  1.9293 -2.2263 -0.8513
  144PVA    H9024460   4.008   5.703   6.909 -2.2400 -0.9731 -6.0937
  144PVA    C4624461   3.908   5.818   6.780 -0.4322  0.0596  0.3344
  144PVA    H9124462   3.821   5.883   6.763  0.1431  0.0898 -3.1283
  144PVA    H9224463   4.001   5.853   6.733  1.1164 -2.3625  1.4189
  144PVA    C4724464   3.874   5.693   6.691  0.0734  0.5600 -0.7432
  144PVA    H9324465   3.826   5.614   6.750 -0.7659  1.7357  0.2005
  144PVA    O1624466   4.001   5.645   6.634  0.0590  0.1157  0.0685
  144PVA    H9424467   3.993   5.548   6.641  0.7681  0.1843  3.4782
  144PVA    C4824468   3.770   5.712   6.562 -0.7348  0.3598 -0.1347
  144PVA    H9524469   3.675   5.724   6.614 -1.1050 -0.7899 -0.5207
  144PVA    H9624470   3.787   5.804   6.504  0.7724  0.3104  0.1650
  144PVA    C4924471   3.758   5.595   6.461 -0.1557  0.6607 -0.3481
  144PVA    H9724472   3.856   5.601   6.411  1.3960  1.3455  2.5525
  144PVA    H9824473   3.772   5.497   6.508  4.1275  1.9240  1.6030
  144PVA    C5024474   3.651   5.595   6.355 -0.4563 -0.6414 -0.0852
  144PVA    H9924475   3.632   5.702   6.339  2.3935  0.2020  1.4324
  144PVA    O1724476   3.540   5.533   6.424 -0.0585 -0.1629 -0.0276
  144PVA   H10024477   3.535   5.534   6.521 -1.3668 -0.7498 -0.0668
  144PVA    C5124478   3.686   5.511   6.228 -0.7117  0.5246  0.8028
  144PVA   H10124479   3.792   5.525   6.204 -0.5958  1.7027  1.8390
  144PVA   H10224480   3.682   5.406   6.258 -2.2544  0.1914 -0.4644
  145PVA     C124481   0.012   6.321   8.052  0.3896 -0.9263 -0.1133
  145PVA     H124482   0.083   6.355   7.974 -2.4773  3.0785 -1.3401
  145PVA     H224483   7.699   6.270   7.994  0.9227 -1.6143 -0.2406
  145PVA     C224484   0.077   6.220   0.063 -0.1844 -0.1033 -0.2819
  145PVA     H324485   0.153   6.268   0.127  1.3076 -1.6199 -0.8333
  145PVA     O124486   7.732   6.182   0.137  0.4685 -0.3062 -0.4820
  145PVA     H424487   7.662   6.250   0.140  2.8474  2.5433  5.4399
  145PVA     C324488   0.147   6.083   0.018 -0.9401  0.3716  0.1889
  145PVA     H524489   0.095   5.987   0.007  1.3725 -0.6517 -4.1020
  145PVA     H624490   0.158   6.112   8.010  2.0144 -1.4474 -0.1011
  145PVA     C424491   0.297   6.046   0.062 -0.9307 -0.2268 -0.5789
  145PVA     H724492   0.308   6.078   0.166  0.4877 -0.4830 -0.6333
  145PVA     H824493   0.379   6.099   0.013  0.8908 -0.1333  2.3452
  145PVA     C524494   0.355   5.902   0.050  0.7527  0.9854 -0.1951
  145PVA     H924495   0.376   5.886   0.156 -1.4894  2.5062  0.5452
  145PVA     O224496   0.268   5.800   0.003 -1.2180  0.3489  0.5330
  145PVA    H1024497   0.247   5.823   8.008 -1.6692 -1.5963  0.1100
  145PVA     C624498   0.499   5.884   8.060 -0.7308 -0.4179 -0.0145
  145PVA    H1124499   0.561   5.916   0.047 -2.7787  1.0475  1.0193
  145PVA    H1224500   0.496   5.963   7.983  0.2695 -3.3600 -3.3398
  145PVA     C724501   0.542   5.739   7.986  0.4101 -0.3210 -0.2251
  145PVA    H1324502   0.457   5.697   7.931  1.0757 -1.8654 -0.1105
  145PVA    H1424503   0.540   5.658   8.060 -2.2139 -0.8921 -0.8101
  145PVA     C824504   0.667   5.703   7.894  1.2085 -0.5737 -0.5576
  145PVA    H1524505   0.740   5.784   7.883 -0.2383  1.1713  1.5676
  145PVA     O324506   0.618   5.700   7.763  0.2136 -0.1852  0.8614
  145PVA    H1624507   0.615   5.604   7.748  2.3994 -0.7168  3.1483
  145PVA     C924508   0.755   5.567   7.925 -0.1189 -0.3960  0.1664
  145PVA    H1724509   0.691   5.481   7.900  1.0280 -0.1987 -4.4126
  145PVA    H1824510   0.774   5.553   8.032 -1.3925 -0.7192  0.3673
  145PVA    C1024511   0.904   5.559   7.853  0.4890  0.6266 -0.5396
  145PVA    H1924512   0.886   5.561   7.745 -0.1051  3.6913 -0.4576
  145PVA    H2024513   0.946   5.653   7.891 -3.0176  1.3011  2.2111
  145PVA    C1124514   0.996   5.436   7.900 -1.1329 -0.5233  0.1392
  145PVA    H2124515   1.007   5.432   8.009 -0.9964  2.7264  0.3399
  145PVA     O424516   0.938   5.323   7.860  0.1368 -0.8046  0.1987
  145PVA    H2224517   0.982   5.254   7.913  0.5721 -0.6578  0.0365
  145PVA    C1224518   1.138   5.435   7.835  0.5840 -0.4648 -0.8434
  145PVA    H2324519   1.119   5.412   7.729 -0.0411  2.5652 -1.4749
  145PVA    H2424520   1.186   5.533   7.825  3.9803 -1.9498 -0.3009
  145PVA    C1324521   1.242   5.351   7.911  0.1957  0.0659  0.1464
  145PVA    H2524522   1.193   5.261   7.950  0.3212  0.7742  2.0484
  145PVA    H2624523   1.284   5.414   7.991  1.5537  1.0289 -1.2688
  145PVA    C1424524   1.359   5.294   7.831 -0.0157  0.3841 -0.0994
  145PVA    H2724525   1.375   5.370   7.754  0.8750 -2.2378 -2.6659
  145PVA     O524526   1.315   5.176   7.757  0.7452  0.5476 -0.5231
  145PVA    H2824527   1.292   5.210   7.669  0.6917  3.5951  0.5444
  145PVA    C1524528   1.500   5.256   7.879 -0.6138 -0.0370 -0.1095
  145PVA    H2924529   1.508   5.149   7.902  0.5685  0.7000  3.5913
  145PVA    H3024530   1.520   5.320   7.966  0.0096 -0.2231 -0.1191
  145PVA    C1624531   1.606   5.279   7.753  0.5293  0.2512  0.2662
  145PVA    H3124532   1.605   5.384   7.721 -1.6570 -0.0340 -0.7991
  145PVA    H3224533   1.578   5.202   7.680  2.5643  0.5592 -0.9005
  145PVA    C1724534   1.757   5.239   7.788 -0.3665  0.3968 -0.2391
  145PVA    H3324535   1.756   5.135   7.821 -2.4478  0.7654  1.0087
  145PVA     O624536   1.801   5.315   7.895 -0.0749  0.4701 -0.8121
  145PVA    H3424537   1.818   5.401   7.854 -2.4204  2.3413  1.7487
  145PVA    C1824538   1.872   5.239   7.675  0.5488 -0.5848  0.4146
  145PVA    H3524539   1.828   5.169   7.603 -2.5935  0.6721  0.9675
  145PVA    H3624540   1.884   5.340   7.634 -1.0238 -0.2587  0.6939
  145PVA    C1924541   2.019   5.187   7.718  0.1005  0.8276  1.2874
  145PVA    H3724542   2.007   5.086   7.759  5.4974  0.5233  2.9303
  145PVA    H3824543   2.059   5.251   7.798  1.1376  3.8797 -1.4611
  145PVA    C2024544   2.120   5.151   7.600 -0.3389 -0.2621 -0.1624
  145PVA    H3924545   2.131   5.253   7.561 -6.2486  0.1701 -1.5614
  145PVA     O724546   2.052   5.073   7.502  0.5416 -0.6388 -0.3158
  145PVA    H4024547   2.020   4.988   7.536 -0.7966 -0.4071 -0.9147
  145PVA    C2124548   2.249   5.065   7.626  0.6581  0.8541  0.5234
  145PVA    H4124549   2.226   4.970   7.676  0.7754  1.1111  1.0851
  145PVA    H4224550   2.301   5.135   7.692 -1.1326  1.7669  1.0323
  145PVA    C2224551   2.336   5.034   7.503  0.3420  0.6876 -0.2196
  145PVA    H4324552   2.275   4.992   7.422 -0.8391  1.6693  0.1244
  145PVA    H4424553   2.359   5.133   7.461  3.8126  0.7697  1.4702
  145PVA    C2324554   2.472   4.951   7.511  0.5309 -0.6015 -0.4942
  145PVA    H4524555   2.537   4.986   7.592  1.2444 -0.1493 -1.2400
  145PVA     O824556   2.441   4.817   7.539  0.0479 -0.1796 -0.1898
  145PVA    H4624557   2.367   4.839   7.597 -1.5988  2.9510 -3.1198
  145PVA    C2424558   2.558   4.957   7.379 -0.0652  0.6771 -1.1894
  145PVA    H4724559   2.497   4.982   7.292 -2.6422  0.3661  0.4079
  145PVA    H4824560   2.631   5.039   7.391 -2.0479  2.2313  1.4017
  145PVA    C2524561   2.645   4.823   7.342 -0.3696  0.5992  0.6099
  145PVA    H4924562   2.576   4.737   7.345 -0.3251  0.5589  3.7956
  145PVA    H5024563   2.710   4.812   7.429  0.7376 -1.1843 -0.3808
  145PVA    C2624564   2.736   4.841   7.216 -1.1503 -0.6996 -0.6672
  145PVA    H5124565   2.819   4.900   7.258 -1.4083 -1.9510  1.7831
  145PVA     O924566   2.683   4.921   7.107 -0.3324 -0.0426 -0.3645
  145PVA    H5224567   2.749   4.977   7.061 -0.9931  0.2569 -0.9559
  145PVA    C2724568   2.778   4.703   7.161  0.9323  0.0780 -0.4527
  145PVA    H5324569   2.675   4.667   7.146  0.7936  0.4199 -0.3281
  145PVA    H5424570   2.815   4.655   7.252  0.0510  2.4014  1.2333
  145PVA    C2824571   2.867   4.676   7.033  0.0289  0.0965 -0.0348
  145PVA    H5524572   2.816   4.736   6.957 -1.2145 -0.5798  0.2414
  145PVA    H5624573   2.962   4.726   7.056  0.9131 -1.1595 -0.8153
  145PVA    C2924574   2.878   4.536   6.969  0.2943  0.2300 -0.1162
  145PVA    H5724575   2.780   4.517   6.922  0.3554 -2.1819  0.6158
  145PVA    O1024576   2.905   4.438   7.067 -0.2168  0.8246 -0.2329
  145PVA    H5824577   2.915   4.489   7.148 -2.1811  2.1246 -0.7179
  145PVA    C3024578   2.985   4.498   6.858 -0.8491 -0.0201  0.9791
  145PVA    H5924579   2.975   4.572   6.778 -2.7725  0.7482  1.8705
  145PVA    H6024580   3.080   4.526   6.907 -2.0651  6.5639  0.5461
  145PVA    C3124581   2.949   4.362   6.795 -1.0005 -0.1913  1.1722
  145PVA    H6124582   2.862   4.392   6.735 -0.4494 -3.4409 -1.5263
  145PVA    H6224583   2.930   4.285   6.871  2.5086 -1.0247  1.3778
  145PVA    C3224584   3.055   4.310   6.688 -0.0568 -0.0278  0.8255
  145PVA    H6324585   3.038   4.362   6.593 -5.3189  0.2805  1.6789
  145PVA    O1124586   3.184   4.305   6.747  0.1734 -0.5510 -0.3152
  145PVA    H6424587   3.216   4.214   6.755  3.2802  0.1905 -2.7418
  145PVA    C3324588   3.031   4.166   6.631  0.0838  0.2738 -0.0521
  145PVA    H6524589   2.944   4.180   6.567  1.4243 -1.1996 -2.3507
  145PVA    H6624590   3.010   4.099   6.716  1.2689 -1.5920 -1.1462
  145PVA    C3424591   3.135   4.093   6.529  0.5208 -0.4527 -0.1594
  145PVA    H6724592   3.145   4.158   6.442  0.0340  4.0455  2.8018
  145PVA    H6824593   3.233   4.081   6.576  0.0934  0.9509  1.1872
  145PVA    C3524594   3.098   3.947   6.496  0.8854  0.6642  0.9128
  145PVA    H6924595   3.033   3.897   6.569 -1.9217  1.5050 -0.8330
  145PVA    O1224596   3.012   3.952   6.382 -0.5126  0.7650 -0.6487
  145PVA    H7024597   2.971   4.040   6.376 -5.4273 -1.0091  1.5197
  145PVA    C3624598   3.213   3.825   6.466  0.8775 -1.3330 -0.1624
  145PVA    H7124599   3.226   3.830   6.358 -0.2852 -4.3453 -0.5278
  145PVA    H7224600   3.313   3.842   6.509  0.2073  1.0325  0.6467
  145PVA    C3724601   3.177   3.671   6.497 -0.1758  0.1120  0.0615
  145PVA    H7324602   3.122   3.620   6.417  1.0897 -1.2908  0.0404
  145PVA    H7424603   3.105   3.671   6.580  1.9419  0.9499  2.0385
  145PVA    C3824604   3.291   3.571   6.540  0.4168 -0.0242  1.0399
  145PVA    H7524605   3.247   3.475   6.510 -1.2281  1.2645 -0.9697
  145PVA    O1324606   3.409   3.586   6.458 -1.1976 -0.7083 -0.0034
  145PVA    H7624607   3.485   3.588   6.519 -2.6137 -0.9893  1.8759
  145PVA    C3924608   3.307   3.581   6.695  0.4313  0.3490 -0.7064
  145PVA    H7724609   3.211   3.573   6.747  0.1001 -1.8330 -1.5362
  145PVA    H7824610   3.353   3.679   6.715  3.3127 -1.1113  0.3709
  145PVA    C4024611   3.411   3.501   6.788  0.4285  0.6168 -0.2465
  145PVA    H7924612   3.368   3.405   6.820  0.0170  0.8164 -0.1934
  145PVA    H8024613   3.512   3.479   6.750  0.5651 -0.5289  0.7215
  145PVA    C4124614   3.465   3.559   6.921 -0.7376 -0.1296 -0.0555
  145PVA    H8124615   3.373   3.589   6.973 -1.4024 -0.8393 -0.7871
  145PVA    O1424616   3.534   3.679   6.883  0.7749 -0.4526  0.2706
  145PVA    H8224617   3.591   3.705   6.958  0.0573  0.1700  0.6165
  145PVA    C4224618   3.553   3.484   7.036  0.0538  0.3674  1.1863
  145PVA    H8324619   3.605   3.409   6.975 -3.9706 -0.8923 -1.0630
  145PVA    H8424620   3.624   3.555   7.080  2.4075  0.3181 -2.1689
  145PVA    C4324621   3.476   3.423   7.154  0.3724 -0.1914  0.3260
  145PVA    H8524622   3.427   3.339   7.102 -1.0283  0.4418  0.5895
  145PVA    H8624623   3.393   3.493   7.161  0.5371 -0.0990  1.4186
  145PVA    C4424624   3.554   3.399   7.284 -0.3482  0.5281 -0.0704
  145PVA    H8724625   3.589   3.494   7.327  4.2748 -0.5706 -0.8846
  145PVA    O1524626   3.673   3.338   7.241 -0.2452  0.4325  0.5642
  145PVA    H8824627   3.625   3.261   7.206 -1.8787  1.3326  0.7197
  145PVA    C4524628   3.497   3.310   7.412 -0.1814 -0.2914 -0.4393
  145PVA    H8924629   3.533   3.208   7.390  1.4053 -0.1121  1.1122
  145PVA    H9024630   3.389   3.305   7.399  0.1900 -3.0807 -4.2534
  145PVA    C4624631   3.511   3.373   7.557 -0.2250 -0.3318  0.1290
  145PVA    H9124632   3.615   3.410   7.564  0.8087 -0.2024 -7.3930
  145PVA    H9224633   3.465   3.472   7.558 -0.9364 -0.5968  3.0948
  145PVA    C4724634   3.494   3.271   7.685  0.5448 -0.6466 -0.1824
  145PVA    H9324635   3.586   3.213   7.667  2.8002  3.0949 -1.8301
  145PVA    O1624636   3.375   3.207   7.670  0.2661 -0.0430 -1.2332
  145PVA    H9424637   3.380   3.126   7.725 -0.9412  0.8422  0.2314
  145PVA    C4824638   3.527   3.325   7.836 -0.0558 -0.6992 -0.8650
  145PVA    H9524639   3.607   3.399   7.822  0.4813 -1.0492  0.2440
  145PVA    H9624640   3.441   3.372   7.885 -0.3860 -2.9561  0.8888
  145PVA    C4924641   3.567   3.231   7.956 -0.4859  0.8098 -0.1101
  145PVA    H9724642   3.626   3.301   8.016  3.4999 -0.2962 -2.3664
  145PVA    H9824643   3.650   3.165   7.927 -1.3244  0.1407 -1.0273
  145PVA    C5024644   3.471   3.163   8.076  0.1077 -0.3000  0.5348
  145PVA    H9924645   3.396   3.238   0.004  1.3423  0.1870  3.1607
  145PVA    O1724646   3.369   3.073   8.020 -0.0257  0.2920 -0.1346
  145PVA   H10024647   3.331   3.030   0.002  1.4146 -3.6188 -1.3620
  145PVA    C5124648   3.524   3.104   0.117 -1.0688 -0.5510 -0.0173
  145PVA   H10124649   3.592   3.175   0.166 -0.5011 -1.4295  0.4918
  145PVA   H10224650   3.599   3.029   0.087 -2.3912 -2.6327  1.6348
  146PVA     C124651   3.597   5.662   5.133  0.5839  0.3893  1.0952
  146PVA     H124652   3.699   5.624   5.121  0.1073 -0.3737 -0.8443
  146PVA     H224653   3.608   5.735   5.214 -0.1906  2.3183 -0.4589
  146PVA     C224654   3.560   5.753   5.013 -0.0191 -0.2078  0.2370
  146PVA     H324655   3.460   5.787   5.044  0.6684  2.6011 -0.3437
  146PVA     O124656   3.543   5.687   4.889 -0.6320 -0.5552  0.0107
  146PVA     H424657   3.631   5.655   4.861 -0.0771 -0.7296  1.8226
  146PVA     C324658   3.654   5.882   4.975  0.8289  0.2866 -0.1044
  146PVA     H524659   3.754   5.837   4.971 -0.3047 -2.5497  0.4886
  146PVA     H624660   3.654   5.959   5.053 -0.7195  2.0261 -1.7154
  146PVA     C424661   3.634   5.950   4.838 -0.9734 -1.1404 -0.0838
  146PVA     H724662   3.603   5.900   4.745 -2.2568 -0.6253  0.0438
  146PVA     H824663   3.547   6.013   4.859 -1.1086 -1.7735  1.4185
  146PVA     C524664   3.757   6.033   4.770 -0.2156 -0.4113 -1.0417
  146PVA     H924665   3.825   6.073   4.846  0.9914 -3.0294 -0.6724
  146PVA     O224666   3.829   5.936   4.694  0.0459  0.0286 -0.7169
  146PVA    H1024667   3.900   5.905   4.753 -1.5937  2.4192  2.9180
  146PVA     C624668   3.719   6.159   4.689  0.6664 -0.3790 -0.8352
  146PVA    H1124669   3.610   6.152   4.684  0.6746 -0.8124 -0.5350
  146PVA    H1224670   3.748   6.245   4.750  2.4421 -1.5046  0.0101
  146PVA     C724671   3.789   6.177   4.548 -0.1495  0.1215 -0.9949
  146PVA    H1324672   3.759   6.088   4.492 -1.2205  0.3797 -0.8501
  146PVA    H1424673   3.896   6.174   4.571 -0.4025  0.1923  0.2598
  146PVA     C824674   3.749   6.309   4.454  1.0654 -0.5433  0.6356
  146PVA    H1524675   3.780   6.402   4.503  0.1737  0.8693 -1.3546
  146PVA     O324676   3.605   6.309   4.424 -1.3611  0.3871 -1.8411
  146PVA    H1624677   3.598   6.257   4.342  0.4983 -3.2287  0.0695
  146PVA     C924678   3.821   6.305   4.312 -0.5225 -0.7515 -0.3120
  146PVA    H1724679   3.787   6.231   4.239 -0.8408 -0.6911 -0.2257
  146PVA    H1824680   3.921   6.273   4.347  0.7531  2.0601 -1.0885
  146PVA    C1024681   3.853   6.450   4.270 -0.2080  0.3840  0.9043
  146PVA    H1924682   3.912   6.500   4.348  2.1635 -1.9921  0.7929
  146PVA    H2024683   3.756   6.496   4.249 -0.0016  0.6395  0.5111
  146PVA    C1124684   3.926   6.466   4.126 -0.5578  0.9668 -0.0225
  146PVA    H2124685   4.013   6.400   4.119  0.2732  2.1724 -1.7788
  146PVA     O424686   3.840   6.422   4.039  0.5452  0.0664  0.7267
  146PVA    H2224687   3.809   6.332   4.057  0.6172 -0.2403 -0.5954
  146PVA    C1224688   3.968   6.609   4.083 -0.2946 -0.0598 -0.0149
  146PVA    H2324689   3.876   6.666   4.099 -0.7280  0.4265 -3.4910
  146PVA    H2424690   4.056   6.645   4.138  0.2588 -1.4863  0.0767
  146PVA    C1324691   3.995   6.650   3.940 -1.9935  0.0602  1.0500
  146PVA    H2524692   3.911   6.635   3.872 -1.9793  3.1808  0.2046
  146PVA    H2624693   4.066   6.571   3.910 -1.5176 -0.8074  4.0879
  146PVA    C1424694   4.064   6.792   3.901 -1.5703  2.0555 -0.4808
  146PVA    H2724695   4.025   6.876   3.959 -4.2246  3.0098 -3.3514
  146PVA     O524696   4.198   6.788   3.928 -1.1684 -0.3418  0.7038
  146PVA    H2824697   4.214   6.726   4.001 -0.9914  1.7394  2.5368
  146PVA    C1524698   4.027   6.835   3.750 -0.0844  0.7048 -0.1682
  146PVA    H2924699   3.919   6.845   3.730  0.1874 -1.8444 -3.9811
  146PVA    H3024700   4.065   6.746   3.698 -0.0100 -0.1106  1.2159
  146PVA    C1624701   4.107   6.961   3.690 -1.1615 -0.5356 -0.5839
  146PVA    H3124702   4.162   7.013   3.769  1.7731 -3.0208 -0.8427
  146PVA    H3224703   4.194   6.927   3.632 -2.1206  0.4614 -2.7398
  146PVA    C1724704   4.047   7.082   3.593  0.0117  0.0391  0.1430
  146PVA    H3324705   4.084   7.171   3.645  2.8787 -0.7231 -0.4155
  146PVA     O624706   3.909   7.068   3.613 -0.0500  0.6953 -0.0305
  146PVA    H3424707   3.866   6.981   3.617 -0.6186  0.9343 -0.8020
  146PVA    C1824708   4.087   7.113   3.445 -0.3032 -0.3114 -0.7785
  146PVA    H3524709   4.188   7.155   3.459 -0.4235 -0.7950  2.4951
  146PVA    H3624710   4.101   7.017   3.393  0.5466 -0.5402 -0.1570
  146PVA    C1924711   4.020   7.220   3.366  0.2042  0.5969 -0.3187
  146PVA    H3724712   4.037   7.318   3.413 -3.0012  0.2168  1.9567
  146PVA    H3824713   3.916   7.197   3.393 -0.4603  1.0647 -2.2966
  146PVA    C2024714   4.009   7.235   3.208 -0.8798 -0.6282 -0.2694
  146PVA    H3924715   3.944   7.157   3.166 -0.9652 -1.0396  0.5980
  146PVA     O724716   4.134   7.204   3.146  0.4075 -0.0311 -0.7789
  146PVA    H4024717   4.139   7.107   3.159 -0.0888  0.2450  2.2687
  146PVA    C2124718   3.944   7.374   3.177  0.4775  0.4432  1.3218
  146PVA    H4124719   3.839   7.382   3.208 -0.5794 -0.3717 -1.7237
  146PVA    H4224720   3.995   7.439   3.249  0.2043  2.0750  0.1074
  146PVA    C2224721   3.978   7.444   3.044  1.0859  0.0356 -0.7397
  146PVA    H4324722   3.983   7.369   2.964  0.6412 -2.2126  1.2264
  146PVA    H4424723   4.073   7.497   3.054 -0.4027  2.4916  2.0038
  146PVA    C2324724   3.892   7.577   2.989  1.1120  0.2916  1.0230
  146PVA    H4524725   3.906   7.663   3.056 -0.3683  1.4131 -0.0434
  146PVA     O824726   3.756   7.565   2.970  0.5077 -0.3081  0.0920
  146PVA    H4624727   3.706   7.554   3.053  1.7835 -0.8769  0.8155
  146PVA    C2424728   3.941   7.620   2.847  0.2121 -1.1419  1.3706
  146PVA    H4724729   4.013   7.547   2.809 -2.0864 -2.6313 -0.3663
  146PVA    H4824730   3.862   7.598   2.774  2.3500 -0.8541 -1.1662
  146PVA    C2524731   3.988   0.089   2.811  0.5994  0.8344  0.1137
  146PVA    H4924732   4.072   0.107   2.879 -0.6727  0.6652  1.8258
  146PVA    H5024733   3.918   0.164   2.850  1.6360  1.3018  1.1463
  146PVA    C2624734   3.996   0.145   2.657 -1.5974 -0.0752  0.2013
  146PVA    H5124735   3.996   0.058   2.591  0.6491 -1.9294  2.4545
  146PVA     O924736   4.123   0.209   2.655 -0.1206 -0.8459 -0.5044
  146PVA    H5224737   4.178   0.130   2.668  0.1086 -0.0992  6.2694
  146PVA    C2724738   3.911   0.268   2.590 -0.4825 -0.2106  0.6961
  146PVA    H5324739   3.902   0.354   2.657  1.8326  1.3782 -0.8638
  146PVA    H5424740   3.809   0.228   2.580  0.2559 -1.6148 -2.8092
  146PVA    C2824741   3.935   0.317   2.439 -0.0214  0.0079  1.1598
  146PVA    H5524742   4.035   0.358   2.423  0.0359 -1.1034 -1.9788
  146PVA    H5624743   3.938   0.230   2.373  2.9510  1.3250 -0.6378
  146PVA    C2924744   3.853   0.447   2.378 -0.2304  0.3575  0.4090
  146PVA    H5724745   3.852   0.530   2.450  0.9985  0.7591 -0.0001
  146PVA    O1024746   3.727   0.392   2.352 -0.4819  0.9896  0.3729
  146PVA    H5824747   3.680   0.467   2.312  3.0052  2.8188 -0.6547
  146PVA    C3024748   3.903   0.511   2.240  0.2501 -0.0919  0.6197
  146PVA    H5924749   3.879   0.447   2.154  1.3639  0.8256 -0.4096
  146PVA    H6024750   4.012   0.519   2.237  0.3325 -0.3391 -4.1738
  146PVA    C3124751   3.835   0.645   2.182  0.9431  0.9473 -0.2299
  146PVA    H6124752   3.792   0.701   2.266 -3.9778  1.1754 -2.5033
  146PVA    H6224753   3.742   0.600   2.145  1.8253  0.8208 -2.4171
  146PVA    C3224754   3.896   0.738   2.062 -0.0504 -0.2814 -0.7003
  146PVA    H6324755   4.000   0.751   2.092 -0.9101  3.2385  1.3523
  146PVA    O1124756   3.895   0.669   1.935  0.2767 -0.0997  0.0193
  146PVA    H6424757   3.931   0.579   1.943 -1.9695 -1.7787 -4.6572
  146PVA    C3324758   3.853   0.894   2.051  0.4663 -0.4059  0.1280
  146PVA    H6524759   3.893   0.952   2.135 -2.7457  2.7418 -0.2555
  146PVA    H6624760   3.748   0.906   2.080 -0.4843  0.3276 -3.1570
  146PVA    C3424761   3.854   0.988   1.921 -1.1402 -0.5031  0.2921
  146PVA    H6724762   3.949   0.943   1.888 -0.0116  1.8585  0.1561
  146PVA    H6824763   3.790   0.953   1.839  0.0991 -1.4259 -0.3166
  146PVA    C3524764   3.867   1.150   1.911  0.8204  0.2943 -0.4275
  146PVA    H6924765   3.956   1.177   1.970 -1.6121  0.2478  3.6148
  146PVA    O1224766   3.754   1.209   1.969 -0.0912 -0.5313  0.0598
  146PVA    H7024767   3.672   1.185   1.922 -0.7340 -2.1565  1.8668
  146PVA    C3624768   3.904   1.206   1.767  0.1143 -0.1531 -1.2174
  146PVA    H7124769   3.988   1.150   1.725 -3.1413 -3.1845 -4.4013
  146PVA    H7224770   3.825   1.174   1.698 -1.0281  1.1833 -0.5883
  146PVA    C3724771   3.914   1.357   1.717 -0.0943  0.0411  0.1073
  146PVA    H7324772   3.981   1.397   1.794  2.4375 -2.1171 -0.8247
  146PVA    H7424773   3.813   1.400   1.714 -2.7706 -5.3676 -0.0058
  146PVA    C3824774   3.983   1.410   1.577 -0.1348  0.8380 -0.0712
  146PVA    H7524775   4.089   1.435   1.591  0.6299 -2.7806  2.0342
  146PVA    O1324776   3.980   1.307   1.475  0.9738 -0.3458 -0.0717
  146PVA    H7624777   3.915   1.333   1.408  1.3816 -3.4408 -1.8501
  146PVA    C3924778   3.923   1.547   1.527  1.0199  0.0384  0.6760
  146PVA    H7724779   3.932   1.615   1.613  0.3058  4.7549 -2.6418
  146PVA    H7824780   3.817   1.527   1.506  1.5835 -2.0718 -0.3751
  146PVA    C4024781   3.976   1.621   1.395 -0.8321  0.0644 -1.4743
  146PVA    H7924782   4.085   1.626   1.386 -0.7142  1.6036  0.3437
  146PVA    H8024783   3.946   1.556   1.312 -0.8495 -0.4224 -1.0945
  146PVA    C4124784   3.916   1.768   1.351  0.1490 -1.0674 -0.1050
  146PVA    H8124785   3.938   1.850   1.421  0.7754 -2.4961  1.4246
  146PVA    O1424786   3.773   1.740   1.341  0.3989  1.0656  0.8334
  146PVA    H8224787   3.746   1.727   1.434 -1.0713 -1.7134  0.0922
  146PVA    C4224788   3.938   1.850   1.205 -0.7066 -0.0954 -0.1351
  146PVA    H8324789   4.047   1.833   1.204  0.0483  3.8384 -0.3517
  146PVA    H8424790   3.897   1.796   1.119 -0.9906 -0.1753  0.0493
  146PVA    C4324791   3.915   2.015   1.209 -0.3646 -0.0136 -0.5184
  146PVA    H8524792   4.011   2.044   1.254  0.4282 -3.7905  0.5471
  146PVA    H8624793   3.843   2.044   1.287 -0.3306 -0.6001 -0.2665
  146PVA    C4424794   3.891   2.116   1.080 -0.9089 -0.3632  0.0554
  146PVA    H8724795   3.817   2.068   1.016 -2.5982 -0.2602  1.8323
  146PVA    O1524796   4.005   2.129   1.002 -0.4515 -1.0507 -0.2122
  146PVA    H8824797   4.066   2.165   1.069 -2.6583  3.4315 -0.2567
  146PVA    C4524798   3.821   2.260   1.084 -0.6426 -0.0678 -0.1072
  146PVA    H8924799   3.742   2.259   1.159  0.3388  2.3283  1.0450
  146PVA    H9024800   3.896   2.316   1.142 -2.4548  3.0147 -0.5752
  146PVA    C4624801   3.768   2.312   0.949 -0.6773  0.7853  1.1077
  146PVA    H9124802   3.849   2.300   0.876 -0.3988 -0.6743  1.6253
  146PVA    H9224803   3.694   2.249   0.897  1.1699  1.9677 -3.4331
  146PVA    C4724804   3.723   2.455   0.937  0.2308 -0.7285 -0.2838
  146PVA    H9324805   3.676   2.484   1.031  2.0048 -2.8518  1.3600
  146PVA    O1624806   3.834   2.530   0.935 -0.5175  0.0728  0.0392
  146PVA    H9424807   3.816   2.610   0.988 -1.9184 -1.7382  2.4970
  146PVA    C4824808   3.626   2.486   0.816  0.3871 -0.7064 -0.4286
  146PVA    H9524809   3.646   2.421   0.730 -2.5812 -1.0972 -0.9376
  146PVA    H9624810   3.523   2.462   0.847 -0.8386  0.9611 -2.8562
  146PVA    C4924811   3.622   2.637   0.763  0.3014 -0.0978  0.3322
  146PVA    H9724812   3.717   2.691   0.770 -1.2372  3.0685 -1.1168
  146PVA    H9824813   3.563   2.693   0.837  0.1001 -1.0100  0.8858
  146PVA    C5024814   3.553   2.653   0.621 -0.4456  0.3744 -0.6453
  146PVA    H9924815   3.455   2.604   0.620 -0.1711 -0.1772 -0.8398
  146PVA    O1724816   3.622   2.596   0.516  0.3100  0.4589  0.3571
  146PVA   H10024817   3.640   2.502   0.535  1.5089  0.4117 -0.8569
  146PVA    C5124818   3.532   2.805   0.573  0.2653  0.3615 -1.7311
  146PVA   H10124819   3.444   2.852   0.618  0.9733  1.5331 -1.5332
  146PVA   H10224820   3.625   2.857   0.599 -2.4900  3.6094  3.2963
  147PVA     C124821   3.169   5.432   5.173 -0.6033  0.3807  0.0654
  147PVA     H124822   3.158   5.489   5.080  0.6269 -0.5104 -0.6529
  147PVA     H224823   3.230   5.350   5.133 -3.5749 -0.0677 -4.3419
  147PVA     C224824   3.038   5.353   5.232  1.0595 -0.3952  0.6946
  147PVA     H324825   3.073   5.259   5.277 -4.1681 -2.0963  1.9686
  147PVA     O124826   2.956   5.428   5.311 -0.8481  0.6051 -0.3076
  147PVA     H424827   2.889   5.459   5.248 -2.0845 -0.2895  0.5177
  147PVA     C324828   2.944   5.313   5.106 -0.3613 -0.0285  0.8842
  147PVA     H524829   2.903   5.411   5.074 -2.4401 -0.2808  2.5239
  147PVA     H624830   2.992   5.279   5.014 -2.7507 -0.0916 -0.4463
  147PVA     C424831   2.837   5.205   5.136  0.1046  0.9247 -0.3029
  147PVA     H724832   2.888   5.108   5.137  2.0383  1.9064 -0.4464
  147PVA     H824833   2.797   5.209   5.238 -0.8883 -2.1022 -0.4493
  147PVA     C524834   2.728   5.199   5.035  0.2312  1.2576 -0.1154
  147PVA     H924835   2.778   5.178   4.940 -2.7028  1.2709 -1.7865
  147PVA     O224836   2.659   5.327   5.032  0.5616  0.2263 -0.1149
  147PVA    H1024837   2.634   5.343   5.125  1.0706 -2.6206  0.6127
  147PVA     C624838   2.634   5.076   5.055 -0.6497 -1.1817  1.1809
  147PVA    H1124839   2.630   5.067   5.164  1.6578 -0.0002  1.4123
  147PVA    H1224840   2.699   4.997   5.017 -0.3866 -0.0640 -0.8349
  147PVA     C724841   2.497   5.078   4.964  0.4821 -0.3288  0.0096
  147PVA    H1324842   2.542   5.071   4.864  1.7712 -0.7941  0.5913
  147PVA    H1424843   2.461   5.181   4.960  0.8143 -0.2054 -4.3669
  147PVA     C824844   2.378   4.977   4.991  0.9262 -0.0854 -0.3722
  147PVA    H1524845   2.423   4.878   5.006 -0.7687 -1.2638 -2.4317
  147PVA     O324846   2.288   5.028   5.097 -0.0974  0.0273 -0.0348
  147PVA    H1624847   2.364   5.051   5.153 -0.6769 -3.0779  2.3514
  147PVA     C924848   2.281   4.943   4.868 -0.3767 -0.1233  0.2240
  147PVA    H1724849   2.345   4.911   4.784 -0.7246 -1.6636  0.5004
  147PVA    H1824850   2.227   5.025   4.819 -0.7185 -0.8722 -0.6993
  147PVA    C1024851   2.173   4.830   4.874 -0.4596 -0.0755  0.3774
  147PVA    H1924852   2.159   4.771   4.782 -1.7495 -1.9640  1.7210
  147PVA    H2024853   2.207   4.757   4.948  1.4110 -0.2572 -0.6153
  147PVA    C1124854   2.038   4.886   4.918  0.1722  0.0348  0.2658
  147PVA    H2124855   2.001   4.967   4.855  1.6886 -0.9346 -1.9721
  147PVA     O424856   2.045   4.926   5.056  0.1005 -0.5003 -0.3791
  147PVA    H2224857   2.130   4.971   5.066 -0.4892  0.2732  1.7784
  147PVA    C1224858   1.928   4.779   4.924  0.4027  1.1692 -0.3945
  147PVA    H2324859   1.946   4.684   4.976  0.1829 -0.0801 -2.4968
  147PVA    H2424860   1.921   4.745   4.820 -0.3210 -5.3866  1.3288
  147PVA    C1324861   1.777   4.826   4.966 -0.4362  0.4124 -0.2630
  147PVA    H2524862   1.770   4.930   4.930  1.1823  1.0942  1.2350
  147PVA    H2624863   1.769   4.846   5.074  2.5197  0.9257 -0.0604
  147PVA    C1424864   1.667   4.735   4.916  1.0029  0.1252 -0.8443
  147PVA    H2724865   1.670   4.738   4.807  4.9929  2.5741 -0.8552
  147PVA     O524866   1.679   4.602   4.964 -0.3806 -0.2223  0.2647
  147PVA    H2824867   1.683   4.613   5.060  1.9437 -1.1865  0.3301
  147PVA    C1524868   1.513   4.779   4.944  0.0518 -0.3409 -0.0255
  147PVA    H2924869   1.470   4.841   4.864 -2.9700 -2.8892 -0.5869
  147PVA    H3024870   1.528   4.844   5.032  3.1024  1.0202 -1.4062
  147PVA    C1624871   1.396   4.671   4.958 -0.6893 -0.3270 -0.0829
  147PVA    H3124872   1.403   4.612   4.866  0.7656  0.0227 -0.2230
  147PVA    H3224873   1.442   4.603   5.031 -0.9766  1.5861  2.0122
  147PVA    C1724874   1.257   4.714   5.007 -0.0830  0.2857  0.3199
  147PVA    H3324875   1.241   4.822   5.001  2.6395  0.7921  0.5302
  147PVA     O624876   1.267   4.688   5.144 -0.2557 -0.1964  0.6668
  147PVA    H3424877   1.290   4.596   5.121  0.7115  0.0012  0.8111
  147PVA    C1824878   1.130   4.631   4.951  1.2437  0.0789 -0.0304
  147PVA    H3524879   1.126   4.630   4.842 -2.4591 -0.1226 -0.0119
  147PVA    H3624880   1.132   4.525   4.982  0.6396  0.0034 -0.2426
  147PVA    C1924881   0.988   4.695   4.989 -0.3801 -0.6153 -0.6990
  147PVA    H3724882   0.988   4.803   4.968 -0.2277 -0.5005 -0.1412
  147PVA    H3824883   0.978   4.708   5.098 -1.6897  1.5331 -1.0074
  147PVA    C2024884   0.865   4.632   4.926 -1.4164 -0.1029 -0.5914
  147PVA    H3924885   0.895   4.528   4.908 -0.4219  0.2784 -1.2279
  147PVA     O724886   0.864   4.688   4.799  0.7188 -0.1088  0.6513
  147PVA    H4024887   0.835   4.780   4.796  6.6495  2.2092 -1.2702
  147PVA    C2124888   0.720   4.636   4.982  0.8590  0.0478 -0.8262
  147PVA    H4124889   0.704   4.743   4.963  1.5389 -0.2203 -3.2339
  147PVA    H4224890   0.729   4.635   5.092  0.4294  1.2467 -0.7685
  147PVA    C2224891   0.599   4.524   4.965 -0.2027  0.1696  1.5802
  147PVA    H4324892   0.608   4.487   4.862 -3.9968 -1.8334  1.7686
  147PVA    H4424893   0.604   4.435   5.029  0.4236 -0.1531  1.0910
  147PVA    C2324894   0.451   4.568   4.996  1.4612 -0.6573 -0.0807
  147PVA    H4524895   0.414   4.608   4.900 -3.3819 -0.7356  1.5018
  147PVA     O824896   0.428   4.674   5.092 -0.3991 -0.0009 -0.3011
  147PVA    H4624897   0.503   4.642   5.145 -1.3140 -1.4258  0.1774
  147PVA    C2424898   0.348   4.444   5.003  1.2103 -0.2593 -0.1672
  147PVA    H4724899   0.368   4.374   4.921 -2.4340  0.0317 -1.4609
  147PVA    H4824900   0.367   4.393   5.099  3.9204 -0.1715 -0.5883
  147PVA    C2524901   0.191   4.479   4.990  0.0235 -0.4865  0.4310
  147PVA    H4924902   0.184   4.525   4.891 -1.8704  1.3098  1.3253
  147PVA    H5024903   0.177   4.545   5.077  0.1121 -2.4006  1.9683
  147PVA    C2624904   0.083   4.362   5.004 -1.2832  0.7152 -0.7248
  147PVA    H5124905   0.093   4.320   5.105 -5.1545  0.0318 -0.4420
  147PVA     O924906   0.093   4.254   4.907 -0.5293  0.9063  0.4740
  147PVA    H5224907   0.023   4.265   4.841  0.1151  0.8080 -0.2404
  147PVA    C2724908   7.706   4.420   4.999 -0.5966 -1.0775 -0.8339
  147PVA    H5324909   7.671   4.457   5.096  5.1082  2.7000  0.2368
  147PVA    H5424910   7.722   4.517   4.950  4.4288 -2.1081 -1.8071
  147PVA    C2824911   7.582   4.348   4.933  0.6930  0.0126 -0.9097
  147PVA    H5524912   7.614   4.279   4.854 -0.4383 -2.1705  0.4402
  147PVA    H5624913   7.527   4.301   5.015  2.5732  3.4834  2.6227
  147PVA    C2924914   7.490   4.445   4.862 -0.7184  0.7607  0.9166
  147PVA    H5724915   7.442   4.493   4.948  1.2773  0.7159  2.1140
  147PVA    O1024916   7.549   4.540   4.775  0.0885  1.1281  0.9209
  147PVA    H5824917   7.510   4.628   4.790 -0.1386  0.8905  1.7870
  147PVA    C3024918   7.368   4.373   4.813  0.5102 -0.5363 -0.1224
  147PVA    H5924919   7.405   4.296   4.745 -1.9873 -2.0728  0.1026
  147PVA    H6024920   7.310   4.314   4.886 -0.4736  0.0754 -0.3890
  147PVA    C3124921   7.270   4.468   4.714 -0.5451  0.2258 -0.4191
  147PVA    H6124922   7.324   4.518   4.633  0.1289  0.6589  0.2804
  147PVA    H6224923   7.225   4.543   4.779  3.1385  3.5968 -1.3420
  147PVA    C3224924   7.145   4.391   4.659  0.6062  0.0765  0.0216
  147PVA    H6324925   7.063   4.390   4.732  0.5940 -1.0327  0.0071
  147PVA    O1124926   7.174   4.254   4.658  0.2545 -0.5963  0.1319
  147PVA    H6424927   7.096   4.201   4.634  2.2494 -2.9085 -1.8876
  147PVA    C3324928   7.087   4.437   4.518  1.1256 -0.5068  0.4300
  147PVA    H6524929   7.161   4.462   4.441  0.6347  0.1122  0.1520
  147PVA    H6624930   7.040   4.530   4.553  2.6946 -0.2909  2.1658
  147PVA    C3424931   6.976   4.347   4.470  1.0810 -0.1524 -0.2319
  147PVA    H6724932   7.013   4.244   4.479 -1.2080 -1.1137 -1.0885
  147PVA    H6824933   6.881   4.358   4.524  0.6653 -0.9969 -0.7820
  147PVA    C3524934   6.939   4.346   4.320 -0.3087  0.9889  0.2130
  147PVA    H6924935   7.021   4.295   4.269 -0.9559  0.3640 -0.2188
  147PVA    O1224936   6.912   4.475   4.264 -0.1764 -0.1884  0.1605
  147PVA    H7024937   6.940   4.473   4.170  1.5778  0.9501  0.6133
  147PVA    C3624938   6.805   4.263   4.281  0.7667 -0.1777 -0.9531
  147PVA    H7124939   6.785   4.183   4.352  2.0533 -1.2728 -1.7783
  147PVA    H7224940   6.713   4.321   4.297 -0.4241 -1.6990 -2.0154
  147PVA    C3724941   6.809   4.211   4.137 -0.6783  0.7419 -0.2268
  147PVA    H7324942   6.913   4.177   4.125 -1.3295 -1.9232  0.9658
  147PVA    H7424943   6.814   4.294   4.066  0.5646  0.8800 -0.0085
  147PVA    C3824944   6.741   4.089   4.070 -0.4459 -0.1915 -1.8089
  147PVA    H7524945   6.636   4.112   4.046  0.1144  0.3403 -3.9507
  147PVA    O1324946   6.735   3.982   4.162  0.5731  0.9785  0.0897
  147PVA    H7624947   6.760   4.013   4.251  4.1897  3.3666 -1.4967
  147PVA    C3924948   6.807   4.031   3.942  0.3957  1.3915  0.0251
  147PVA    H7724949   6.916   4.033   3.956  1.0655  0.1222 -3.9040
  147PVA    H7824950   6.804   4.092   3.851  1.6243  1.6032  0.1157
  147PVA    C4024951   6.766   3.885   3.893 -1.0179 -0.6287 -0.2708
  147PVA    H7924952   6.769   3.816   3.978 -2.3406 -0.4259 -0.0255
  147PVA    H8024953   6.657   3.880   3.878 -1.2653 -0.5591  1.3585
  147PVA    C4124954   6.848   3.817   3.785  0.2092  0.0887  1.1530
  147PVA    H8124955   6.944   3.868   3.795  0.1993  1.0895 -2.4424
  147PVA    O1424956   6.775   3.870   3.670  0.2862  0.4864  0.3392
  147PVA    H8224957   6.759   3.966   3.676 -3.5919 -0.0853  3.0439
  147PVA    C4224958   6.853   3.659   3.789 -0.4348  0.2419 -1.6493
  147PVA    H8324959   6.917   3.629   3.872 -3.2268  5.4191  3.0400
  147PVA    H8424960   6.753   3.627   3.821 -0.1328  0.8195 -0.0621
  147PVA    C4324961   6.869   3.579   3.658 -0.4727 -0.8348  0.9009
  147PVA    H8524962   6.776   3.608   3.607 -0.0832  1.3431  1.3264
  147PVA    H8624963   6.934   3.643   3.597 -0.1541 -2.9866 -1.1984
  147PVA    C4424964   6.923   3.438   3.670 -1.1055  0.2731  0.6090
  147PVA    H8724965   7.014   3.435   3.730 -1.6520 -0.2819  1.4302
  147PVA    O1524966   6.838   3.360   3.754  0.1586 -0.2345  0.0993
  147PVA    H8824967   6.752   3.343   3.712  1.5831 -2.9349 -2.0741
  147PVA    C4524968   6.941   3.367   3.524 -0.8045  0.6057  0.2946
  147PVA    H8924969   7.017   3.426   3.471  3.0202 -2.6787  1.6192
  147PVA    H9024970   6.850   3.350   3.465 -0.9726  0.2597  0.6484
  147PVA    C4624971   7.006   3.229   3.535 -0.2649  0.3039 -0.4080
  147PVA    H9124972   7.063   3.216   3.628  2.4939 -0.1343 -2.0300
  147PVA    H9224973   6.930   3.156   3.566  0.4781  0.3855  1.7477
  147PVA    C4724974   7.100   3.171   3.416  1.1097 -0.7465 -0.0227
  147PVA    H9324975   7.203   3.208   3.419  0.8438 -0.0099  3.0047
  147PVA    O1624976   7.045   3.208   3.286  1.4172  1.2569  0.3359
  147PVA    H9424977   7.040   3.302   3.262 -0.6049  1.1978  0.3702
  147PVA    C4824978   7.121   3.019   3.431  0.5212 -0.1443 -0.3979
  147PVA    H9524979   7.151   3.005   3.535 -1.8088 -2.9366  0.0201
  147PVA    H9624980   7.026   2.972   3.405 -0.6909  2.2294 -0.5341
  147PVA    C4924981   7.238   2.966   3.345  0.8988  0.4875 -0.2618
  147PVA    H9724982   7.336   2.978   3.393  0.6467  1.6541 -0.0059
  147PVA    H9824983   7.252   3.040   3.265 -2.7782  1.0338 -0.5996
  147PVA    C5024984   7.238   2.810   3.297  0.9975  0.0868  0.2723
  147PVA    H9924985   7.154   2.767   3.353  3.1470 -2.5515  1.7077
  147PVA    O1724986   7.205   2.806   3.157  0.2766 -0.2612 -0.4065
  147PVA   H10024987   7.147   2.882   3.139  1.1621  0.1651 -1.6113
  147PVA    C5124988   7.364   2.737   3.340 -0.0601  0.0068 -0.4840
  147PVA   H10124989   7.381   2.742   3.448 -4.0188 -0.9618  0.3464
  147PVA   H10224990   7.441   2.794   3.286 -1.6260  4.3188  1.4168
  148PVA     C124991   2.725   2.344   7.997  0.6813  0.3494  0.3327
  148PVA     H124992   2.664   2.423   8.042 -0.4448  0.4313 -1.2459
  148PVA     H224993   2.695   2.353   7.892  1.5825  0.9918  0.1176
  148PVA     C224994   2.686   2.206   8.041 -1.0635  0.3312  1.0079
  148PVA     H324995   2.606   2.176   7.972  0.3391  0.3604 -0.6799
  148PVA     O124996   2.785   2.105   8.036 -0.6099 -0.5051 -0.6939
  148PVA     H424997   2.752   2.023   8.078  1.7483 -0.3972  1.6495
  148PVA     C324998   2.611   2.188   0.088  0.2886  1.0727 -0.0141
  148PVA     H524999   2.503   2.210   0.079  0.0736 -0.5822 -2.4881
  148PVA     H625000   2.646   2.266   0.157  3.0563  0.3743 -0.5157
  148PVA     C425001   2.620   2.051   0.163 -0.2564 -0.5606  0.8820
  148PVA     H725002   2.571   1.969   0.108  1.4251  0.5784 -2.6221
  148PVA     H825003   2.727   2.029   0.171  0.3087  2.4448  3.8568
  148PVA     C525004   2.561   2.049   0.313 -0.4790 -0.6911 -1.1246
  148PVA     H925005   2.472   2.112   0.301 -3.5528 -3.7486  2.8796
  148PVA     O225006   2.658   2.114   0.406 -0.4289  0.4213 -0.1054
  148PVA    H1025007   2.639   2.209   0.414  2.5226  1.4322 -2.8464
  148PVA     C625008   2.502   1.917   0.361 -0.1368  0.3130 -0.4691
  148PVA    H1125009   2.556   1.825   0.337  1.7269  0.7657  1.6358
  148PVA    H1225010   2.401   1.903   0.321  0.6732 -4.6505 -1.4225
  148PVA     C725011   2.484   1.919   0.522  0.4981  0.0673  0.7816
  148PVA    H1325012   2.418   1.995   0.566 -1.6541 -2.2485  1.8658
  148PVA    H1425013   2.584   1.926   0.564  1.6802 -1.7616 -1.4751
  148PVA     C825014   2.427   1.786   0.579  0.2823  0.5428  0.4750
  148PVA    H1525015   2.498   1.713   0.539 -2.0779 -1.6133 -0.0793
  148PVA     O325016   2.295   1.758   0.521  0.2398  0.4581  0.5328
  148PVA    H1625017   2.240   1.826   0.561 -0.5140 -0.0196  0.3311
  148PVA     C925018   2.440   1.776   0.725  0.4774 -0.3922 -0.8395
  148PVA    H1725019   2.423   1.877   0.767 -1.2504  0.9938 -4.5004
  148PVA    H1825020   2.542   1.746   0.753 -0.1845 -0.9964  1.1123
  148PVA    C1025021   2.349   1.683   0.807  0.3766 -0.0962  0.7446
  148PVA    H1925022   2.331   1.597   0.742  3.0477  1.6187 -2.5760
  148PVA    H2025023   2.253   1.737   0.810  0.3467 -0.1832  1.6687
  148PVA    C1125024   2.387   1.637   0.952 -0.4253  0.9105 -0.3582
  148PVA    H2125025   2.453   1.550   0.938 -1.0425  0.0411  1.7489
  148PVA     O425026   2.454   1.754   1.003 -0.6421 -0.7186 -0.4376
  148PVA    H2225027   2.408   1.835   0.977  0.0196  1.9468  5.2366
  148PVA    C1225028   2.261   1.581   1.037  0.1352  0.5886  1.3201
  148PVA    H2325029   2.242   1.675   1.091  0.0504  2.2644 -1.4551
  148PVA    H2425030   2.178   1.553   0.972  3.3320  0.6663 -3.2595
  148PVA    C1325031   2.290   1.465   1.132  0.6693 -0.2451 -1.3416
  148PVA    H2525032   2.326   1.390   1.061  2.9756  0.8762 -1.4409
  148PVA    H2625033   2.372   1.514   1.186 -1.4580  4.0543 -1.5863
  148PVA    C1425034   2.183   1.428   1.242 -0.1545 -0.3969 -0.7755
  148PVA    H2725035   2.097   1.386   1.187  2.4127 -2.9867 -3.1434
  148PVA     O525036   2.176   1.528   1.336 -0.4820  0.3636 -1.2952
  148PVA    H2825037   2.129   1.506   1.418  0.4332 -2.8999 -1.4754
  148PVA    C1525038   2.229   1.300   1.322  0.7118  0.4284 -1.4668
  148PVA    H2925039   2.321   1.315   1.380  1.5151  2.0177 -3.0825
  148PVA    H3025040   2.247   1.224   1.246 -3.2386 -2.9218  0.5119
  148PVA    C1625041   2.117   1.222   1.417  1.2362 -0.2501  0.7155
  148PVA    H3125042   2.018   1.269   1.421  2.3882  2.7377 -1.7662
  148PVA    H3225043   2.132   1.274   1.512  1.4228 -1.2991  1.2779
  148PVA    C1725044   2.129   1.075   1.456 -0.9533  1.7224 -0.4137
  148PVA    H3325045   2.093   1.021   1.367  3.7763  0.3971 -1.7735
  148PVA     O625046   2.259   1.021   1.489 -0.0970  0.3079 -0.3910
  148PVA    H3425047   2.289   1.069   1.568 -0.3779  2.2264 -1.3934
  148PVA    C1825048   2.028   1.048   1.571 -1.7794 -0.0146 -0.7181
  148PVA    H3525049   2.069   1.104   1.656 -3.4646 -2.0995  1.5828
  148PVA    H3625050   1.925   1.085   1.558 -3.1072 -3.0498  0.2406
  148PVA    C1925051   2.023   0.895   1.599 -0.1103  0.0523 -0.3438
  148PVA    H3725052   2.112   0.876   1.661 -1.3807  1.0961  1.9373
  148PVA    H3825053   2.048   0.828   1.515  1.6915  1.3744 -0.9193
  148PVA    C2025054   1.882   0.840   1.654 -0.0052  0.0151  0.0632
  148PVA    H3925055   1.815   0.924   1.632  0.1317  0.4726  1.3074
  148PVA     O725056   1.845   0.741   1.566 -0.0647 -0.7996  0.3474
  148PVA    H4025057   1.890   0.665   1.604  0.7935  1.0229  3.2814
  148PVA    C2125058   1.866   0.780   1.798  0.0028 -0.7823 -0.2797
  148PVA    H4125059   1.932   0.693   1.808  0.2036 -0.5894  0.0715
  148PVA    H4225060   1.908   0.859   1.861 -2.1110  0.2593 -0.0778
  148PVA    C2225061   1.724   0.743   1.861  0.5114 -0.0983  0.6310
  148PVA    H4325062   1.675   0.654   1.817 -2.5656  2.3105 -1.2675
  148PVA    H4425063   1.654   0.825   1.839  1.8559  0.2961 -2.9279
  148PVA    C2325064   1.708   0.736   2.025  0.6217 -0.4155  0.1753
  148PVA    H4525065   1.764   0.812   2.080 -3.1380  1.5341  1.6484
  148PVA     O825066   1.734   0.607   2.073  0.4569 -0.4986  0.8176
  148PVA    H4625067   1.672   0.562   2.134 -0.2527 -0.0735  0.4238
  148PVA    C2425068   1.579   0.794   2.099 -0.6379 -0.0228 -0.2667
  148PVA    H4725069   1.594   0.902   2.095 -2.6670  0.2842 -0.4590
  148PVA    H4825070   1.488   0.781   2.039  0.4507 -0.4089 -1.9202
  148PVA    C2525071   1.534   0.742   2.242 -0.0867  0.9497  1.2705
  148PVA    H4925072   1.594   0.792   2.320  1.9807 -1.0222  1.0771
  148PVA    H5025073   1.572   0.639   2.249 -1.3149  0.5943  4.1149
  148PVA    C2625074   1.385   0.772   2.291 -0.4270 -0.7922  1.2007
  148PVA    H5125075   1.325   0.729   2.210 -2.2257  3.2229  0.1662
  148PVA     O925076   1.385   0.918   2.294  0.1662 -0.0384  0.7965
  148PVA    H5225077   1.294   0.933   2.323 -0.6551 -2.8280 -0.0840
  148PVA    C2725078   1.337   0.741   2.446  0.3371  0.4295  0.0879
  148PVA    H5325079   1.317   0.838   2.492  1.0660  0.2278  0.8489
  148PVA    H5425080   1.423   0.717   2.510  0.9685  3.5477  0.5640
  148PVA    C2825081   1.208   0.637   2.477  0.6789 -0.3647 -1.1995
  148PVA    H5525082   1.132   0.676   2.408  1.0117  2.5036 -0.0671
  148PVA    H5625083   1.217   0.534   2.441 -1.3875  0.0731 -3.1975
  148PVA    C2925084   1.149   0.607   2.623 -0.4284 -0.5146 -1.0218
  148PVA    H5725085   1.088   0.697   2.640 -6.0256 -4.4259  2.7522
  148PVA    O1025086   1.257   0.605   2.706  0.4108  0.6637  0.0869
  148PVA    H5825087   1.327   0.568   2.649  1.9184  1.6158  1.2539
  148PVA    C3025088   1.065   0.477   2.670 -1.4469 -1.3977  0.3688
  148PVA    H5925089   1.000   0.447   2.587  1.1870 -4.6490 -0.7188
  148PVA    H6025090   1.133   0.392   2.682  1.4178 -0.0132 -3.7974
  148PVA    C3125091   0.958   0.483   2.794 -0.1603  0.5232  0.3791
  148PVA    H6125092   0.875   0.551   2.775  0.7960  1.0149 -2.4858
  148PVA    H6225093   1.002   0.510   2.891  2.2487  2.4302 -1.1382
  148PVA    C3225094   0.888   0.352   2.831  0.3066  0.5245 -0.0967
  148PVA    H6325095   0.949   0.295   2.902  4.3126  4.6401  0.2288
  148PVA    O1125096   0.875   0.266   2.718 -0.0027  0.7728 -0.0401
  148PVA    H6425097   0.784   0.262   2.685  1.2914 -1.3191 -3.8575
  148PVA    C3325098   0.749   0.371   2.898  0.1268 -0.6780 -0.3952
  148PVA    H6525099   0.769   0.430   2.988  1.3679  3.0810 -2.8482
  148PVA    H6625100   0.717   0.269   2.922  1.8709 -1.2668 -0.4697
  148PVA    C3425101   0.629   0.446   2.833 -0.5917  0.1961  0.0051
  148PVA    H6725102   0.670   0.534   2.782 -1.5784 -0.0021 -1.1853
  148PVA    H6825103   0.601   0.404   2.736 -2.9444 -1.6432  1.3823
  148PVA    C3525104   0.507   0.466   2.931  0.3557  0.0741  0.0889
  148PVA    H6925105   0.544   0.465   3.034 -0.5961 -0.5163  0.4451
  148PVA    O1225106   0.404   0.363   2.932  0.0000  0.6328 -0.0625
  148PVA    H7025107   0.395   0.346   3.027  0.1659  0.3812 -0.0934
  148PVA    C3625108   0.427   0.609   2.934  0.0758  0.3143  0.7878
  148PVA    H7125109   0.403   0.637   2.831 -7.6718  4.5161  2.9084
  148PVA    H7225110   0.483   0.693   2.977  4.3343 -0.3196 -2.7982
  148PVA    C3725111   0.284   0.623   2.993  0.4551  1.0443 -0.0777
  148PVA    H7325112   0.272   0.585   3.095  2.7183  1.4026  0.3585
  148PVA    H7425113   0.221   0.560   2.929 -0.0169 -0.1025  1.4630
  148PVA    C3825114   0.236   0.768   2.989  0.2185 -1.0508  1.2915
  148PVA    H7525115   0.303   0.802   2.909 -0.5885 -0.7784  0.7132
  148PVA    O1325116   0.268   0.832   3.112 -0.9596  0.1902  0.4262
  148PVA    H7625117   0.194   0.814   3.173 -2.3960 -0.5791 -1.4462
  148PVA    C3925118   0.076   0.791   2.954 -0.6148  0.0749  0.4694
  148PVA    H7725119   0.022   0.771   3.047  0.5745  0.3473  1.2406
  148PVA    H7825120   0.049   0.714   2.881 -0.5290 -0.5419  1.0732
  148PVA    C4025121   0.052   0.945   2.903  0.7729 -0.2424  0.4754
  148PVA    H7925122   0.103   1.011   2.974  2.3464 -0.5794 -0.2916
  148PVA    H8025123   0.104   0.948   2.806 -0.1551 -4.1547 -0.2915
  148PVA    C4125124   7.674   1.013   2.887 -0.1253  0.3912  0.3738
  148PVA    H8125125   7.623   1.005   2.983 -0.5542 -2.5486 -0.0201
  148PVA    O1425126   7.600   0.933   2.799  0.1096 -0.6672 -0.0813
  148PVA    H8225127   7.579   0.864   2.864 -0.2574 -1.4980 -1.0421
  148PVA    C4225128   7.669   1.173   2.858  0.3011  0.8286 -0.3472
  148PVA    H8325129   7.756   1.214   2.912 -0.8350  1.5911  0.9785
  148PVA    H8425130   7.685   1.189   2.751 -0.5586 -0.9557 -0.7674
  148PVA    C4325131   7.544   1.257   2.902  0.6105  0.2786  0.6324
  148PVA    H8525132   7.473   1.196   2.959  3.1165 -2.1088  1.4006
  148PVA    H8625133   7.482   1.282   2.815  1.1399 -0.3949  0.0436
  148PVA    C4425134   7.574   1.394   2.986 -1.0261 -0.7956 -0.8161
  148PVA    H8725135   7.662   1.441   2.941 -0.3428 -1.4183 -0.1557
  148PVA    O1525136   7.629   1.360   3.113  0.1534 -0.5515  0.3236
  148PVA    H8825137   7.556   1.301   3.137 -0.8697  1.4737  2.6351
  148PVA    C4525138   7.458   1.507   3.005 -0.2008  0.0049  0.2095
  148PVA    H8925139   7.361   1.460   2.983 -1.2462  0.8881  2.6268
  148PVA    H9025140   7.475   1.570   2.916  0.3621 -1.3110 -0.6462
  148PVA    C4625141   7.452   1.604   3.132  0.3002 -0.4044 -0.1045
  148PVA    H9125142   7.441   1.560   3.232  1.1987 -0.3120  0.0434
  148PVA    H9225143   7.544   1.662   3.148  0.5536 -0.8606  0.1063
  148PVA    C4725144   7.333   1.713   3.149  0.2106  0.7321  0.7679
  148PVA    H9325145   7.243   1.657   3.178  0.8526 -0.0886  1.2214
  148PVA    O1625146   7.315   1.764   3.023 -0.2202 -0.8095  0.5713
  148PVA    H9425147   7.223   1.739   3.000  0.3192 -1.1564 -1.4736
  148PVA    C4825148   7.352   1.824   3.249 -0.2907 -0.1913 -0.5859
  148PVA    H9525149   7.336   1.777   3.347  2.3552  0.9037  0.4610
  148PVA    H9625150   7.456   1.853   3.270 -0.6317  3.5993 -3.1855
  148PVA    C4925151   7.259   1.966   3.257  0.3409  0.6225  1.0278
  148PVA    H9725152   7.168   1.949   3.316 -2.2888 -0.6282 -2.9848
  148PVA    H9825153   7.217   1.983   3.157  1.0746  0.3579  0.6668
  148PVA    C5025154   7.329   2.079   3.324  0.1425 -0.0174  0.3352
  148PVA    H9925155   7.426   2.092   3.274 -1.0148  1.4941 -1.6277
  148PVA    O1725156   7.341   2.044   3.461  0.0935 -0.1287 -0.4146
  148PVA   H10025157   7.336   2.131   3.503  0.2004  1.1184 -2.8199
  148PVA    C5125158   7.264   2.222   3.307 -0.0450  0.4922  0.9678
  148PVA   H10125159   7.200   2.246   3.393 -0.7484 -5.4641  2.5719
  148PVA   H10225160   7.202   2.229   3.217 -2.9235  0.8133  2.8273
  149PVA     C125161   3.153   2.416   7.713  1.1016  0.3693 -0.0129
  149PVA     H125162   3.066   2.464   7.666  1.5627  1.5445  0.2745
  149PVA     H225163   3.230   2.495   7.711  1.8403 -0.1915  2.3820
  149PVA     C225164   3.194   2.309   7.621 -0.0128  0.1782  0.0626
  149PVA     H325165   3.292   2.340   7.581  1.7437 -4.6638 -0.0853
  149PVA     O125166   3.210   2.189   7.691 -0.6390  0.1334  0.3466
  149PVA     H425167   3.230   2.122   7.623 -0.1565  2.8193 -2.4063
  149PVA     C325168   3.108   2.287   7.493 -0.2452  0.4072 -0.5797
  149PVA     H525169   3.021   2.230   7.527  0.4681 -0.9615 -0.9881
  149PVA     H625170   3.087   2.388   7.455  2.4579  0.7322 -1.3733
  149PVA     C425171   3.158   2.196   7.368 -0.1723  0.3881 -1.4192
  149PVA     H725172   3.244   2.250   7.327  1.6679 -0.1349  1.4049
  149PVA     H825173   3.220   2.116   7.411  3.8091  5.2905  3.5800
  149PVA     C525174   3.058   2.143   7.256 -0.7407 -0.3226 -0.8269
  149PVA     H925175   3.036   2.044   7.298  1.2844 -2.0530 -3.5312
  149PVA     O225176   2.965   2.234   7.223  0.8515 -0.0940 -0.0238
  149PVA    H1025177   2.949   2.230   7.127 -2.6868 -0.0174  0.4091
  149PVA     C625178   3.141   2.117   7.127 -0.2395 -0.5293 -0.5541
  149PVA    H1125179   3.249   2.114   7.146 -0.6677 -3.8950  2.2975
  149PVA    H1225180   3.111   2.019   7.086  0.0564  0.5622 -3.6199
  149PVA     C725181   3.132   2.228   7.012 -0.6548  0.9708 -0.2099
  149PVA    H1325182   3.106   2.328   7.049  0.3983  0.4582  2.1114
  149PVA    H1425183   3.058   2.172   6.954 -0.3849 -1.9011  1.9564
  149PVA     C825184   3.260   2.236   6.922  1.1238 -0.2606  0.0101
  149PVA    H1525185   3.254   2.145   6.860 -0.6692 -3.2962  4.1518
  149PVA     O325186   3.382   2.230   6.993 -0.1635 -0.3325 -0.2148
  149PVA    H1625187   3.393   2.317   7.036 -1.5539  0.8339 -2.0682
  149PVA     C925188   3.267   2.356   6.821  0.7080 -0.5929 -0.4720
  149PVA    H1725189   3.224   2.444   6.870 -0.8341 -2.2798  1.3467
  149PVA    H1825190   3.202   2.342   6.734 -1.0294 -1.9286  0.9815
  149PVA    C1025191   3.400   2.386   6.753  0.4027  0.5505 -0.1239
  149PVA    H1925192   3.479   2.391   6.829  2.0451  3.1752 -1.8577
  149PVA    H2025193   3.425   2.293   6.701  0.5838 -1.0275  2.5895
  149PVA    C1125194   3.398   2.517   6.673  1.1031  0.0803 -0.4732
  149PVA    H2125195   3.325   2.593   6.704  0.0963 -1.0618  0.0285
  149PVA     O425196   3.526   2.566   6.654  0.3044 -0.8297 -0.5579
  149PVA    H2225197   3.592   2.496   6.636  3.0993  1.8252 -1.5041
  149PVA    C1225198   3.351   2.506   6.527  0.1650 -0.0878 -0.7262
  149PVA    H2325199   3.250   2.463   6.525 -1.0482  2.0652  3.4863
  149PVA    H2425200   3.416   2.442   6.466 -3.4013 -1.4248 -3.5162
  149PVA    C1325201   3.351   2.630   6.435  0.0104 -0.2121 -0.5608
  149PVA    H2525202   3.335   2.717   6.500  2.0972 -2.3725  3.1597
  149PVA    H2625203   3.460   2.641   6.431  0.1522 -1.6472 -1.9522
  149PVA    C1425204   3.296   2.631   6.297  0.1698  0.6597 -0.0947
  149PVA    H2725205   3.193   2.593   6.300  0.5444 -0.4886 -1.2642
  149PVA     O525206   3.352   2.535   6.221 -0.8795 -0.4369 -0.5403
  149PVA    H2825207   3.347   2.564   6.129 -1.2841 -0.7705 -0.6231
  149PVA    C1525208   3.284   2.770   6.244  0.3858 -0.7476 -0.5244
  149PVA    H2925209   3.379   2.784   6.190  1.7708 -0.3550  1.8436
  149PVA    H3025210   3.295   2.839   6.328  3.1869 -1.6679 -0.0236
  149PVA    C1625211   3.145   2.783   6.173 -0.7887  0.4867  0.7008
  149PVA    H3125212   3.118   2.718   6.089  0.8787  1.5922 -0.7434
  149PVA    H3225213   3.066   2.771   6.250 -0.5390  0.3078  0.9336
  149PVA    C1725214   3.119   2.912   6.089 -1.1915  0.3463  0.3604
  149PVA    H3325215   3.092   2.987   6.164  2.7100  0.1431  2.2552
  149PVA     O625216   3.232   2.976   6.029 -0.3720 -0.6560  0.2631
  149PVA    H3425217   3.242   3.042   6.100 -1.4606 -1.2165  0.9620
  149PVA    C1825218   3.008   2.882   5.979  1.2319 -0.0742  0.0838
  149PVA    H3525219   3.025   2.787   5.927 -1.3609 -0.5233 -0.0722
  149PVA    H3625220   2.918   2.871   6.041  0.8910 -0.1034 -0.4119
  149PVA    C1925221   2.977   3.000   5.876  0.4163 -0.5309  0.7481
  149PVA    H3725222   3.076   3.026   5.838 -0.7643  0.3092 -2.0174
  149PVA    H3825223   2.957   3.100   5.917  2.2031  2.4630 -4.7433
  149PVA    C2025224   2.898   2.981   5.744  0.1758  0.9737  0.2375
  149PVA    H3925225   2.794   2.960   5.770  0.3408  0.9087  0.8774
  149PVA     O725226   2.953   2.872   5.672  0.8514  0.2542  0.1737
  149PVA    H4025227   3.047   2.883   5.650  0.9676 -0.0959  0.4847
  149PVA    C2125228   2.900   3.109   5.648  0.1792 -0.4324 -0.0614
  149PVA    H4125229   3.003   3.142   5.631 -0.7236  2.1722 -1.1930
  149PVA    H4225230   2.860   3.192   5.708  4.4669  0.9337  1.2117
  149PVA    C2225231   2.818   3.078   5.513  0.4810  0.1768  1.1977
  149PVA    H4325232   2.885   3.035   5.437  0.4841 -1.7543  2.2202
  149PVA    H4425233   2.759   2.987   5.527 -1.9434  1.8919  3.1401
  149PVA    C2325234   2.719   3.199   5.435  0.6214 -0.1905 -0.4755
  149PVA    H4525235   2.637   3.197   5.509  1.1959 -0.4930  0.1660
  149PVA     O825236   2.762   3.336   5.436 -0.0802  0.3291  0.2445
  149PVA    H4625237   2.841   3.330   5.379  0.6872  5.4649  0.3559
  149PVA    C2425238   2.664   3.165   5.291  0.3510 -0.6008  0.4668
  149PVA    H4725239   2.723   3.218   5.215 -0.7801  4.4783  2.7341
  149PVA    H4825240   2.666   3.055   5.280 -0.1887 -1.0895  3.9791
  149PVA    C2525241   2.512   3.217   5.280 -0.3739 -0.4406  0.1045
  149PVA    H4925242   2.521   3.306   5.343 -1.4638  0.1844 -0.5868
  149PVA    H5025243   2.452   3.148   5.339 -0.8821  1.6551  2.1523
  149PVA    C2625244   2.455   3.259   5.142  0.3499  0.5955 -0.0674
  149PVA    H5125245   2.472   3.176   5.072  0.0336  1.0415 -0.6866
  149PVA     O925246   2.524   3.374   5.093 -0.0169  0.4721  0.3325
  149PVA    H5225247   2.616   3.344   5.090 -0.6081 -1.7616  1.6849
  149PVA    C2725248   2.298   3.276   5.142  1.0599 -0.0630 -0.2518
  149PVA    H5325249   2.293   3.384   5.157  2.9585  0.0412 -0.2438
  149PVA    H5425250   2.255   3.216   5.223 -0.7811 -0.8069 -1.6938
  149PVA    C2825251   2.222   3.248   5.004  0.3379 -0.0530 -0.5440
  149PVA    H5525252   2.212   3.351   4.967  2.2442 -0.5300 -2.6097
  149PVA    H5625253   2.295   3.216   4.929 -0.0099 -1.7987 -0.1781
  149PVA    C2925254   2.074   3.179   4.986 -1.4595  0.3571 -0.0439
  149PVA    H5725255   2.073   3.092   5.054 -1.1970  0.3989  0.0159
  149PVA    O1025256   2.067   3.138   4.855  0.1997  0.4524  0.2020
  149PVA    H5825257   1.974   3.151   4.830 -0.2264 -0.1489  1.4191
  149PVA    C3025258   1.945   3.249   5.031 -0.5000 -1.8484  1.1069
  149PVA    H5925259   1.940   3.241   5.140 -2.2880 -1.5565  1.0712
  149PVA    H6025260   1.958   3.353   5.000  0.4363 -1.3446  3.0690
  149PVA    C3125261   1.801   3.198   5.002  0.2799 -0.8433 -0.0779
  149PVA    H6125262   1.783   3.203   4.894  1.9525  1.4603 -0.3126
  149PVA    H6225263   1.818   3.092   5.026  1.1671 -0.3815  1.4457
  149PVA    C3225264   1.674   3.250   5.079  0.7520 -0.2112 -0.6981
  149PVA    H6325265   1.688   3.263   5.188 -2.9295  3.0274 -0.3917
  149PVA    O1125266   1.656   3.391   5.051 -0.5164 -0.1652  1.0709
  149PVA    H6425267   1.586   3.436   5.101 -2.6663 -1.7918 -0.2861
  149PVA    C3325268   1.537   3.172   5.043  0.2467  0.0587 -0.7504
  149PVA    H6525269   1.557   3.065   5.033  0.9450  0.0509  0.4896
  149PVA    H6625270   1.493   3.207   4.949  0.0618 -0.6585 -0.9357
  149PVA    C3425271   1.437   3.163   5.163  0.1102  1.2279 -0.7314
  149PVA    H6725272   1.492   3.163   5.259  0.0860  2.0104 -0.7171
  149PVA    H6825273   1.368   3.246   5.179 -0.7474  0.4474 -0.2577
  149PVA    C3525274   1.349   3.032   5.177  0.2966  0.3115  0.6894
  149PVA    H6925275   1.310   3.029   5.074  3.2936  0.3204 -0.5571
  149PVA    O1225276   1.427   2.914   5.198  0.3037  0.7728  0.6148
  149PVA    H7025277   1.455   2.878   5.112  1.4424  1.0485  0.8502
  149PVA    C3625278   1.233   3.053   5.280  0.8168 -0.4306  1.0915
  149PVA    H7125279   1.241   3.148   5.334  0.3615  1.4874 -1.9963
  149PVA    H7225280   1.139   3.082   5.231 -0.2292 -1.9496  2.0996
  149PVA    C3725281   1.183   2.931   5.360  0.0646  0.3720  0.8236
  149PVA    H7325282   1.260   2.860   5.392 -0.2746  0.5063  1.9608
  149PVA    H7425283   1.116   2.859   5.311 -0.7920 -0.4261  3.0644
  149PVA    C3825284   1.108   2.963   5.496 -1.1956  0.0175  1.0369
  149PVA    H7525285   1.076   3.068   5.502  0.4541  0.5340  1.2951
  149PVA    O1325286   1.208   2.935   5.595 -0.1985 -0.1289 -0.4165
  149PVA    H7625287   1.216   3.011   5.655 -2.1707 -0.6929  0.6493
  149PVA    C3925288   0.985   2.886   5.539  0.0930  0.0042  0.5373
  149PVA    H7725289   0.912   2.898   5.458 -1.4348 -4.5853  0.9440
  149PVA    H7825290   1.013   2.780   5.547 -1.6579 -0.4678  0.9479
  149PVA    C4025291   0.924   2.945   5.672 -0.0830 -0.7358 -0.4576
  149PVA    H7925292   0.985   2.941   5.763  0.6066 -4.2201 -0.9152
  149PVA    H8025293   0.913   3.051   5.646  0.2456 -0.9568 -1.5610
  149PVA    C4125294   0.785   2.895   5.707 -0.3762 -0.2295 -1.3681
  149PVA    H8125295   0.737   2.847   5.621  0.0791  0.7091 -2.1537
  149PVA    O1425296   0.808   2.814   5.816 -0.2248  0.6891  0.7814
  149PVA    H8225297   0.894   2.768   5.814 -0.3611  0.4457 -0.5889
  149PVA    C4225298   0.687   3.014   5.748  1.0901  0.1417  0.2335
  149PVA    H8325299   0.718   3.042   5.850  0.3570 -0.7249  0.7061
  149PVA    H8425300   0.697   3.104   5.686 -1.9910 -1.0540 -2.2336
  149PVA    C4325301   0.536   2.972   5.739 -0.8328  0.7441 -0.2677
  149PVA    H8525302   0.514   2.886   5.804 -2.8098 -0.9931 -3.0281
  149PVA    H8625303   0.512   2.938   5.638  0.4157  1.9975 -1.0234
  149PVA    C4425304   0.447   3.089   5.797  0.3699  0.4606  0.7050
  149PVA    H8725305   0.496   3.186   5.801 -1.2877  1.3433  0.4673
  149PVA    O1525306   0.386   3.056   5.917 -0.5506 -0.3892 -0.7958
  149PVA    H8825307   0.313   3.118   5.935 -0.4746 -0.5222  0.0338
  149PVA    C4525308   0.325   3.102   5.711  0.1935  0.1818 -0.5045
  149PVA    H8925309   0.263   3.012   5.705 -2.6582  2.0141 -0.8775
  149PVA    H9025310   0.368   3.125   5.613  0.6435 -0.4621 -0.4641
  149PVA    C4625311   0.224   3.230   5.740  1.6295 -0.5246 -0.1838
  149PVA    H9125312   0.272   3.324   5.767  0.3674  1.4262 -3.9928
  149PVA    H9225313   0.184   3.248   5.639  0.3243 -1.0693  0.2099
  149PVA    C4725314   0.111   3.232   5.848 -1.9657  0.6743  0.3531
  149PVA    H9325315   0.033   3.171   5.801  0.9872 -1.9719 -1.5603
  149PVA    O1625316   0.154   3.189   5.976  1.1290  0.1662 -0.1387
  149PVA    H9425317   0.078   3.182   6.036  1.2050  0.5507  0.0020
  149PVA    C4825318   0.051   3.378   5.865 -0.2436  1.2100 -0.8661
  149PVA    H9525319   0.029   3.368   5.972 -0.2864 -2.8947 -1.1174
  149PVA    H9625320   0.127   3.457   5.862  0.8907  0.2033  0.3041
  149PVA    C4925321   7.693   3.416   5.782  0.7106 -0.7637  1.3899
  149PVA    H9725322   7.605   3.359   5.814 -0.3714 -0.0968 -0.2602
  149PVA    H9825323   7.707   3.382   5.678  0.5674  0.8953  0.8029
  149PVA    C5025324   7.664   3.561   5.796  0.7714 -0.1899  0.5007
  149PVA    H9925325   7.760   3.582   5.748 -0.0950  1.2198 -0.7255
  149PVA    O1725326   7.661   3.606   5.925  0.1007  0.3713  0.1004
  149PVA   H10025327   7.576   3.579   5.964 -0.9639  3.1154 -0.0894
  149PVA    C5125328   7.552   3.630   5.700  0.8383  1.3766 -1.4534
  149PVA   H10125329   7.583   3.616   5.596 -0.5065 -2.6613 -1.4664
  149PVA   H10225330   7.462   3.567   5.696  1.6598 -0.1642  1.4067
  150PVA     C125331   0.343   2.871   3.340 -0.6462  0.4504  0.2327
  150PVA     H125332   0.432   2.922   3.381  0.4893  0.4232 -2.0445
  150PVA     H225333   0.332   2.924   3.245  0.9428  0.3435 -0.0513
  150PVA     C225334   0.236   2.896   3.449 -0.7424  0.1511  0.6410
  150PVA     H325335   0.225   2.798   3.496  0.9808 -1.1887 -1.5487
  150PVA     O125336   0.279   2.981   3.557  0.1410 -0.0565 -0.7735
  150PVA     H425337   0.225   2.966   3.636  2.2213 -0.5527  0.6364
  150PVA     C325338   0.107   2.927   3.376 -0.1066  0.3161  0.7672
  150PVA     H525339   0.078   2.859   3.294  2.2030  0.5658 -0.3081
  150PVA     H625340   0.129   3.019   3.321  1.0331  0.4876  1.4793
  150PVA     C425341   7.748   2.941   3.451  0.3011  0.5006  0.5156
  150PVA     H725342   0.022   3.011   3.525  0.7916  2.0534 -1.1309
  150PVA     H825343   7.678   3.010   3.402 -0.0307  2.3366  3.3850
  150PVA     C525344   7.668   2.831   3.520  0.6282  0.9257 -0.1991
  150PVA     H925345   7.604   2.774   3.451  2.1449 -3.6034  1.7216
  150PVA     O225346   7.754   2.745   3.589 -0.6943  0.9696 -0.4927
  150PVA    H1025347   7.762   2.773   3.682  1.7722 -0.8843 -0.0479
  150PVA     C625348   7.571   2.893   3.628 -0.1610  0.4479 -0.3324
  150PVA    H1125349   7.622   2.935   3.716  0.1841 -1.2824  0.3413
  150PVA    H1225350   7.511   2.967   3.574  0.6713 -0.3234 -2.3863
  150PVA     C725351   7.473   2.791   3.692  0.7611  0.1218  0.6393
  150PVA    H1325352   7.508   2.778   3.795 -1.6208 -0.9331  1.3776
  150PVA    H1425353   7.499   2.695   3.646  0.5351  1.6997 -3.1861
  150PVA     C825354   7.329   2.839   3.701  0.2275 -0.0600 -0.2744
  150PVA    H1525355   7.313   2.895   3.608 -3.2552 -0.5950 -0.1060
  150PVA     O325356   7.328   2.949   3.798  0.7300  0.3822  0.0443
  150PVA    H1625357   7.398   3.008   3.765 -1.3960  3.5382  0.7178
  150PVA     C925358   7.224   2.736   3.725  0.7849  0.3959  0.4347
  150PVA    H1725359   7.235   2.715   3.832  5.1650  1.6001  0.4013
  150PVA    H1825360   7.237   2.644   3.666 -0.2837  0.6094 -0.1652
  150PVA    C1025361   7.081   2.766   3.663 -0.4301  0.3394 -0.1018
  150PVA    H1925362   7.042   2.861   3.699  0.7528 -0.6128  4.2976
  150PVA    H2025363   7.101   2.776   3.556 -5.0162 -3.1378 -1.6143
  150PVA    C1125364   6.973   2.655   3.668  0.1416  0.6708 -0.4201
  150PVA    H2125365   6.996   2.592   3.755  0.1737  0.9774 -0.2043
  150PVA     O425366   7.000   2.581   3.556  0.3337  0.4733  0.6414
  150PVA    H2225367   6.914   2.544   3.528  1.7732 -0.0487 -3.9670
  150PVA    C1225368   6.819   2.702   3.660 -0.5990  0.2213  0.9584
  150PVA    H2325369   6.802   2.753   3.755 -1.0226 -1.9906  2.1331
  150PVA    H2425370   6.751   2.617   3.652  0.1008 -0.3350  0.8720
  150PVA    C1325371   6.779   2.794   3.543  0.0700 -0.9113  0.7750
  150PVA    H2525372   6.837   2.886   3.557 -1.8947 -0.0761  5.4518
  150PVA    H2625373   6.796   2.752   3.444  0.2653 -0.3725  0.5766
  150PVA    C1425374   6.619   2.813   3.554 -1.3224 -0.8545  1.0183
  150PVA    H2725375   6.586   2.843   3.654  1.7951  2.1028  1.3366
  150PVA     O525376   6.545   2.696   3.529 -0.3871  0.8007  0.1781
  150PVA    H2825377   6.529   2.656   3.617 -2.7778 -0.6708 -0.8314
  150PVA    C1525378   6.575   2.938   3.470 -0.2763  1.3558  0.0179
  150PVA    H2925379   6.601   2.913   3.367 -1.5731  2.5349 -0.6283
  150PVA    H3025380   6.634   3.025   3.499  2.0200 -0.9822  3.1307
  150PVA    C1625381   6.420   2.951   3.490 -0.1208 -0.0733 -0.3603
  150PVA    H3125382   6.381   2.849   3.482  2.4043 -1.0949 -0.9643
  150PVA    H3225383   6.395   2.964   3.596 -0.6827 -2.5220 -0.1404
  150PVA    C1725384   6.356   3.063   3.406  0.6538  0.3044 -0.2076
  150PVA    H3325385   6.336   3.031   3.303 -0.6807 -1.5332  0.5700
  150PVA     O625386   6.460   3.172   3.409 -0.2531  0.5743 -0.1805
  150PVA    H3425387   6.528   3.123   3.359 -1.0743  1.4679 -2.3024
  150PVA    C1825388   6.232   3.123   3.457  0.0848 -0.2132  0.8894
  150PVA    H3525389   6.159   3.041   3.453  0.0189 -0.2336  2.1219
  150PVA    H3625390   6.260   3.152   3.559 -2.7408 -0.3051  1.7631
  150PVA    C1925391   6.187   3.255   3.384  0.7062 -0.8082 -0.0231
  150PVA    H3725392   6.098   3.222   3.330  0.4552 -2.7010  1.4209
  150PVA    H3825393   6.252   3.289   3.303  0.5802 -0.0178  0.2015
  150PVA    C2025394   6.169   3.382   3.478 -0.1445 -0.1606  0.4811
  150PVA    H3925395   6.266   3.392   3.529  1.1216 -4.7943 -0.5755
  150PVA     O725396   6.058   3.364   3.566  0.0373 -0.2714 -0.8549
  150PVA    H4025397   6.062   3.274   3.603 -0.9992 -0.2714 -0.6896
  150PVA    C2125398   6.143   3.513   3.393 -0.7120 -0.0796 -0.3050
  150PVA    H4125399   6.062   3.506   3.319 -0.7419 -0.0897 -0.2712
  150PVA    H4225400   6.237   3.518   3.337 -0.6010  0.9054 -0.0542
  150PVA    C2225401   6.110   3.631   3.493 -0.1625 -0.0200 -0.5031
  150PVA    H4325402   6.004   3.659   3.491  0.2745  1.8716  0.5208
  150PVA    H4425403   6.136   3.604   3.596 -3.0412  0.3914  0.4224
  150PVA    C2325404   6.182   3.769   3.455 -0.3296 -0.0993 -0.4882
  150PVA    H4525405   6.291   3.758   3.454 -0.3449 -2.0325  2.7740
  150PVA     O825406   6.120   3.826   3.341 -0.3234 -0.8152 -0.2121
  150PVA    H4625407   6.022   3.821   3.344 -0.6737  3.0392  2.5011
  150PVA    C2425408   6.147   3.868   3.574 -0.2223  0.0069  1.0536
  150PVA    H4725409   6.043   3.858   3.609 -0.2500  1.7807  1.5778
  150PVA    H4825410   6.210   3.823   3.650  1.6811 -2.6295 -1.8391
  150PVA    C2525411   6.160   4.021   3.561 -0.2672 -0.0168 -0.2381
  150PVA    H4925412   6.108   4.062   3.474 -2.2747 -1.4408  0.2325
  150PVA    H5025413   6.266   4.043   3.539  0.2898  0.2823  2.4164
  150PVA    C2625414   6.097   4.110   3.683  0.5080  0.4094  0.2745
  150PVA    H5125415   6.081   4.212   3.647 -0.3694 -0.2771 -1.3730
  150PVA     O925416   5.977   4.050   3.735  0.9983  1.2274  0.9619
  150PVA    H5225417   5.990   4.073   3.829  1.6603  2.7754  0.5154
  150PVA    C2725418   6.194   4.104   3.803 -0.0791  0.0641  0.8835
  150PVA    H5325419   6.296   4.125   3.769 -0.8032  2.4363 -0.0201
  150PVA    H5425420   6.210   4.006   3.849 -0.5809 -0.0206  0.8864
  150PVA    C2825421   6.163   4.210   3.908 -0.3749 -0.4615  0.0150
  150PVA    H5525422   6.057   4.225   3.931 -0.1489  6.6187 -1.3318
  150PVA    H5625423   6.208   4.306   3.878 -0.5247 -1.0878 -2.4240
  150PVA    C2925424   6.233   4.172   4.051 -0.3485 -0.2015  0.0077
  150PVA    H5725425   6.203   4.066   4.050  1.3383 -0.7204 -1.2455
  150PVA    O1025426   6.376   4.177   4.028  0.4177  0.6823 -0.3951
  150PVA    H5825427   6.395   4.219   3.943 -0.0298  2.3769  0.3042
  150PVA    C3025428   6.196   4.271   4.155  0.0125  1.1067  0.3299
  150PVA    H5925429   6.262   4.359   4.156  0.2327  0.9433  1.0494
  150PVA    H6025430   6.104   4.323   4.127 -4.0279 -4.1005  2.3425
  150PVA    C3125431   6.191   4.201   4.289 -0.3556 -0.9988 -2.0127
  150PVA    H6125432   6.292   4.168   4.317 -0.5545  1.7166  2.8895
  150PVA    H6225433   6.125   4.116   4.267 -1.2367  0.2030 -4.3184
  150PVA    C3225434   6.116   4.284   4.400 -2.2925 -0.4293 -0.2003
  150PVA    H6325435   6.131   4.227   4.492  1.4078  0.4416 -0.1246
  150PVA    O1125436   5.972   4.271   4.414 -0.6336  0.4717  0.6765
  150PVA    H6425437   5.963   4.317   4.500 -2.5334 -2.1528  2.0405
  150PVA    C3325438   6.159   4.430   4.415 -1.3862 -0.0659  0.0989
  150PVA    H6525439   6.267   4.438   4.429 -1.1585 -0.0988 -1.5268
  150PVA    H6625440   6.128   4.480   4.323  0.0225 -1.4788 -1.1963
  150PVA    C3425441   6.104   4.498   4.553 -1.4024 -0.4254  0.3367
  150PVA    H6725442   6.016   4.560   4.533  0.0844  1.1172 -1.8749
  150PVA    H6825443   6.186   4.566   4.580  0.1964 -2.0686 -0.1692
  150PVA    C3525444   6.098   4.421   4.683  0.5180  0.5082  0.0640
  150PVA    H6925445   6.196   4.376   4.703  0.3136  1.1190  2.8853
  150PVA    O1225446   6.003   4.307   4.671  0.5315  1.5832  0.5487
  150PVA    H7025447   6.021   4.251   4.748 -0.2089 -0.5936 -0.7950
  150PVA    C3625448   6.079   4.514   4.805 -0.2738 -0.1438 -0.2788
  150PVA    H7125449   6.132   4.610   4.814  3.7356 -2.3394  4.7291
  150PVA    H7225450   5.976   4.551   4.812  0.2562  1.1739  5.3060
  150PVA    C3725451   6.079   4.422   4.938  1.5873  0.1298 -0.4805
  150PVA    H7325452   6.177   4.375   4.958  1.0754 -0.8468 -0.2040
  150PVA    H7425453   6.010   4.337   4.929  2.7820 -1.0758  1.0124
  150PVA    C3825454   6.045   4.483   5.076 -0.9370  0.1913  0.1948
  150PVA    H7525455   5.954   4.541   5.057 -1.8315 -0.7496  1.4362
  150PVA    O1325456   6.150   4.575   5.110  0.4811 -0.0594 -0.6453
  150PVA    H7625457   6.178   4.565   5.202  2.4847 -2.6173 -1.4041
  150PVA    C3925458   6.044   4.382   5.196  0.1123  0.2569  0.7542
  150PVA    H7725459   5.973   4.300   5.175  0.6388  0.4174 -2.1047
  150PVA    H7825460   6.134   4.319   5.192 -0.6263 -0.8449 -2.8985
  150PVA    C4025461   6.005   4.431   5.339 -0.0288 -0.2719 -0.9097
  150PVA    H7925462   5.934   4.513   5.326  1.0614  0.4068 -3.0090
  150PVA    H8025463   5.938   4.362   5.393 -0.5976  2.1027  1.6631
  150PVA    C4125464   6.116   4.484   5.435 -1.0305 -0.3465 -0.1225
  150PVA    H8125465   6.067   4.508   5.530 -2.3238 -1.9032 -0.3604
  150PVA    O1425466   6.180   4.605   5.374  0.1841 -0.7921 -0.0189
  150PVA    H8225467   6.269   4.618   5.412 -0.5975 -3.3917  3.0898
  150PVA    C4225468   6.224   4.386   5.475  0.1111  0.3010  0.6025
  150PVA    H8325469   6.173   4.289   5.469  2.1485 -0.7720 -0.4900
  150PVA    H8425470   6.294   4.382   5.391 -2.4407 -1.2155 -1.6439
  150PVA    C4325471   6.300   4.410   5.612 -0.1245 -0.5393  0.1880
  150PVA    H8525472   6.227   4.440   5.688  0.7896  1.1193  0.4512
  150PVA    H8625473   6.363   4.499   5.599 -0.3351 -0.7161 -2.5710
  150PVA    C4425474   6.390   4.284   5.642 -0.6051  0.2310  0.5213
  150PVA    H8725475   6.446   4.272   5.548 -0.5164  3.2278  0.0951
  150PVA    O1525476   6.309   4.169   5.690  0.2573 -1.0715  0.6384
  150PVA    H8825477   6.340   4.110   5.760 -2.1598 -2.5968  0.5366
  150PVA    C4525478   6.511   4.311   5.737  0.5217 -0.2322 -0.1293
  150PVA    H8925479   6.569   4.397   5.701 -0.2089  0.1550 -0.4145
  150PVA    H9025480   6.463   4.359   5.824 -0.1892  4.5407 -2.8371
  150PVA    C4625481   6.613   4.201   5.784  0.4653 -0.0301  0.6048
  150PVA    H9125482   6.670   4.192   5.691 -2.3454 -0.9572 -1.1620
  150PVA    H9225483   6.569   4.101   5.797 -0.2763 -0.0557 -1.6162
  150PVA    C4725484   6.712   4.237   5.899 -1.1419  0.9143  0.2295
  150PVA    H9325485   6.729   4.345   5.900  0.0602  0.7687  2.2575
  150PVA    O1625486   6.685   4.173   6.032  0.1358 -0.1933  0.2985
  150PVA    H9425487   6.622   4.223   6.085  1.0282 -1.0029  2.2336
  150PVA    C4825488   6.868   4.227   5.859 -0.1775 -0.5679  0.7164
  150PVA    H9525489   6.873   4.280   5.764 -2.2348  0.1165  0.9377
  150PVA    H9625490   6.919   4.287   5.935  3.9476 -2.6242 -0.1848
  150PVA    C4925491   6.922   4.083   5.859  0.4043 -0.0679 -0.3692
  150PVA    H9725492   6.847   4.027   5.802  0.6741 -0.3859 -0.4152
  150PVA    H9825493   6.936   4.044   5.961  2.6046  2.4214  0.3685
  150PVA    C5025494   7.064   4.062   5.800  0.2707  1.1672 -1.0273
  150PVA    H9925495   7.040   4.029   5.698 -0.5016  0.4298 -0.6231
  150PVA    O1725496   7.145   4.173   5.786  0.4253 -0.2279  0.1915
  150PVA   H10025497   7.203   4.174   5.864  0.9613 -4.3507  0.1048
  150PVA    C5125498   7.156   3.940   5.854 -0.8229  0.4915 -0.6620
  150PVA   H10125499   7.154   3.954   5.962  0.2066  4.4167 -1.0161
  150PVA   H10225500   7.104   3.844   5.838 -0.3145  0.3973 -1.8239
  151PVA     C125501   0.666   2.473   3.264  0.5636 -0.2944  0.9716
  151PVA     H125502   0.693   2.514   3.362 -1.4016  1.9228  0.6676
  151PVA     H225503   0.632   2.371   3.282  0.5561  0.2777  5.0953
  151PVA     C225504   0.770   2.489   3.147 -0.1041 -0.2391 -0.4402
  151PVA     H325505   0.734   2.405   3.086 -1.3154 -1.3458  1.6889
  151PVA     O125506   0.755   2.614   3.081 -0.1884  0.7326  0.8459
  151PVA     H425507   0.764   2.676   3.155  1.9239 -0.3490  1.5671
  151PVA     C325508   0.917   2.442   3.157 -0.7455 -0.2056  0.7204
  151PVA     H525509   0.919   2.346   3.208  2.1238 -1.2578 -1.1215
  151PVA     H625510   0.981   2.514   3.209 -1.0313  1.6310 -1.3028
  151PVA     C425511   0.990   2.411   3.026  0.4389  0.2113  0.1506
  151PVA     H725512   0.922   2.331   2.996 -2.8432  2.1026  1.9199
  151PVA     H825513   0.988   2.494   2.954 -1.5222  0.8262  0.8295
  151PVA     C525514   1.137   2.372   3.009 -0.2035 -0.2510 -0.8790
  151PVA     H925515   1.176   2.332   3.104 -1.3221 -5.1740 -2.1684
  151PVA     O225516   1.208   2.486   2.961 -0.3301  0.1553  0.1151
  151PVA    H1025517   1.160   2.570   2.971  0.2434  1.1374 -3.9559
  151PVA     C625518   1.156   2.258   2.896  1.1029 -0.1592  0.2429
  151PVA    H1125519   1.129   2.161   2.938 -1.4345  1.1532  1.8981
  151PVA    H1225520   1.083   2.266   2.814  2.4409  1.3539 -0.8672
  151PVA     C725521   1.296   2.234   2.829 -0.1750 -0.1730  0.4881
  151PVA    H1325522   1.357   2.204   2.915  0.5648 -3.9909 -1.1371
  151PVA    H1425523   1.343   2.320   2.781 -0.4183 -1.4425 -2.2682
  151PVA     C825524   1.311   2.119   2.717  0.1116  0.4772  0.1715
  151PVA    H1525525   1.267   2.036   2.774  3.5815  0.6804  3.5382
  151PVA     O325526   1.227   2.153   2.622  0.0769 -1.3044  0.0679
  151PVA    H1625527   1.150   2.098   2.647 -0.8232  1.2703  3.7304
  151PVA     C925528   1.450   2.065   2.661  0.6850  0.3241  0.4502
  151PVA    H1725529   1.495   2.001   2.739 -0.0932 -1.9014 -0.8164
  151PVA    H1825530   1.506   2.156   2.639 -2.3222  1.4744 -3.4326
  151PVA    C1025531   1.447   1.984   2.531  0.0965 -1.0316  0.5396
  151PVA    H1925532   1.447   2.054   2.446  0.0602  1.1719  2.2584
  151PVA    H2025533   1.354   1.927   2.533  1.7810 -4.0741 -0.8203
  151PVA    C1125534   1.567   1.881   2.520  0.9771  0.5970 -0.2629
  151PVA    H2125535   1.589   1.831   2.616  1.4855 -0.4620 -0.9106
  151PVA     O425536   1.687   1.948   2.497  0.6862  0.1161  0.1708
  151PVA    H2225537   1.768   1.893   2.501 -0.4526 -1.5928  3.3075
  151PVA    C1225538   1.545   1.786   2.388  1.1039 -0.4628 -0.3252
  151PVA    H2325539   1.472   1.839   2.326 -1.3134 -1.8165  1.2122
  151PVA    H2425540   1.640   1.755   2.342 -0.0671 -1.2628 -2.3250
  151PVA    C1325541   1.485   1.643   2.427  0.1124 -0.3481  0.5307
  151PVA    H2525542   1.531   1.643   2.527  1.1722  2.8910  0.1974
  151PVA    H2625543   1.377   1.661   2.431 -0.2122  2.8064 -6.8696
  151PVA    C1425544   1.530   1.505   2.355  1.4060 -0.7046 -0.0296
  151PVA    H2725545   1.521   1.527   2.248  1.4302  0.0302  0.1117
  151PVA     O525546   1.668   1.492   2.374 -0.2410 -0.6121 -0.3549
  151PVA    H2825547   1.716   1.438   2.308  1.5039  0.4336  0.0025
  151PVA    C1525548   1.454   1.377   2.407 -0.3678  0.1348  0.9222
  151PVA    H2925549   1.384   1.360   2.324  2.9458  4.1623 -3.2930
  151PVA    H3025550   1.406   1.424   2.494  0.0246  0.0880  1.1646
  151PVA    C1625551   1.521   1.238   2.452  0.1193  0.1018  0.4798
  151PVA    H3125552   1.554   1.186   2.362 -1.0969 -0.2390  0.2161
  151PVA    H3225553   1.618   1.257   2.501  1.8653 -3.2868 -1.2719
  151PVA    C1725554   1.440   1.150   2.563  0.1988  0.2520  0.9285
  151PVA    H3325555   1.362   1.100   2.505  0.1958  1.2957  0.0112
  151PVA     O625556   1.364   1.228   2.669 -0.1207  0.0195 -0.0023
  151PVA    H3425557   1.423   1.254   2.742  1.1515 -0.5001 -0.8232
  151PVA    C1825558   1.522   1.036   2.639  0.0072 -0.1223  0.9042
  151PVA    H3525559   1.564   0.966   2.567  0.1140  0.5850  0.2663
  151PVA    H3625560   1.616   1.080   2.675 -0.1152  3.2129 -2.3093
  151PVA    C1925561   1.457   0.967   2.755  0.5990  0.0626 -1.1356
  151PVA    H3725562   1.351   0.959   2.780  0.7541 -2.5640 -0.9953
  151PVA    H3825563   1.492   1.030   2.837  4.1258 -1.9403 -0.8637
  151PVA    C2025564   1.503   0.826   2.796  1.2290 -0.0489  0.7784
  151PVA    H3925565   1.490   0.770   2.703 -2.7155  0.0323  1.1165
  151PVA     O725566   1.646   0.824   2.833  0.1118  0.0429 -0.2389
  151PVA    H4025567   1.679   0.748   2.781  2.4643 -2.0869  3.8488
  151PVA    C2125568   1.416   0.754   2.903  0.7462 -0.1035 -0.7536
  151PVA    H4125569   1.423   0.814   2.995 -1.2025 -3.3267  1.6716
  151PVA    H4225570   1.308   0.761   2.885  0.8826  0.7172 -1.3273
  151PVA    C2225571   1.448   0.612   2.936  0.0163  0.8041 -0.0193
  151PVA    H4325572   1.536   0.642   2.993 -0.0278  0.1322  0.4158
  151PVA    H4425573   1.502   0.567   2.853 -1.6855  0.0685 -0.7872
  151PVA    C2325574   1.360   0.510   3.003  0.0066 -0.9187  0.6166
  151PVA    H4525575   1.256   0.534   2.977  0.3374  1.2762  1.0873
  151PVA     O825576   1.379   0.518   3.140 -0.1025 -0.4881  0.3513
  151PVA    H4625577   1.305   0.511   3.203 -0.4345  1.0205  0.1647
  151PVA    C2425578   1.381   0.358   2.970  0.3294 -0.4162 -0.5323
  151PVA    H4725579   1.452   0.382   2.891 -1.0640  4.7764 -0.5264
  151PVA    H4825580   1.439   0.306   3.047 -0.3915  0.4633  0.6465
  151PVA    C2525581   1.273   0.257   2.920 -0.0723  0.1118  0.0123
  151PVA    H4925582   1.179   0.295   2.962 -0.8230 -3.4339  1.8609
  151PVA    H5025583   1.255   0.249   2.812 -0.6269  1.3404 -0.0058
  151PVA    C2625584   1.300   0.102   2.953 -0.5776 -0.1833  0.0607
  151PVA    H5125585   1.338   0.101   3.055  0.9372  2.2368 -0.3879
  151PVA     O925586   1.169   0.052   2.967  0.5257 -0.6885 -0.3703
  151PVA    H5225587   1.110   0.109   2.915 -1.2284  2.5568  4.4704
  151PVA    C2725588   1.388   0.001   2.879  0.5977 -0.8272 -1.0430
  151PVA    H5325589   1.459   0.045   2.808  1.1457 -1.0801 -0.6666
  151PVA    H5425590   1.327   7.617   2.819 -1.9714 -1.4681  2.0449
  151PVA    C2825591   1.466   7.582   2.977 -0.9096  0.9118  1.6269
  151PVA    H5525592   1.554   7.548   2.921 -0.9231  3.4966 -0.1477
  151PVA    H5625593   1.509   7.643   3.058  3.2637  0.6848 -0.1480
  151PVA    C2925594   1.398   7.445   3.017 -0.3199  0.0314 -0.8227
  151PVA    H5725595   1.354   7.402   2.926 -4.0699 -0.7785  1.1983
  151PVA    O1025596   1.290   7.494   3.105 -0.0133 -0.0131 -0.0435
  151PVA    H5825597   1.299   7.587   3.078 -0.1589 -0.2708 -1.0587
  151PVA    C3025598   1.468   7.330   3.085  0.3314 -0.2150 -0.2343
  151PVA    H5925599   1.564   7.304   3.037  0.0166 -0.3363 -0.8114
  151PVA    H6025600   1.514   7.385   3.168  4.7279 -2.4074 -0.8757
  151PVA    C3125601   1.375   7.214   3.141  0.6075  0.7896  0.8891
  151PVA    H6125602   1.325   7.178   3.051  4.2393 -0.8454 -0.6733
  151PVA    H6225603   1.305   7.276   3.199  3.6371  2.8625  2.6180
  151PVA    C3225604   1.393   7.082   3.221  0.3880  0.1894  0.8398
  151PVA    H6325605   1.474   7.107   3.290  1.1686 -1.4525  0.5636
  151PVA    O1125606   1.445   6.989   3.133  0.0484 -0.4644 -0.5436
  151PVA    H6425607   1.365   6.962   3.084  1.0303  1.0787 -3.1964
  151PVA    C3325608   1.284   7.037   3.320  0.3228 -0.6235  0.7409
  151PVA    H6525609   1.220   7.126   3.325 -0.1140 -0.5563 -2.8361
  151PVA    H6625610   1.225   6.955   3.276  2.6735  0.0917 -4.6166
  151PVA    C3425611   1.354   7.001   3.454  0.3451  0.4143  1.1261
  151PVA    H6725612   1.398   6.903   3.435  3.1005  1.3750  2.1283
  151PVA    H6825613   1.409   7.089   3.491  0.3553  0.8115  0.1775
  151PVA    C3525614   1.249   6.973   3.568 -0.9975  0.3213 -0.1984
  151PVA    H6925615   1.194   6.880   3.553 -0.4491  0.2363 -1.9022
  151PVA    O1225616   1.167   7.084   3.585 -0.7062  0.2202 -0.1163
  151PVA    H7025617   1.240   7.148   3.597  1.3422 -1.6347 -1.7225
  151PVA    C3625618   1.330   6.944   3.699 -1.0827 -0.1372  0.5535
  151PVA    H7125619   1.350   6.839   3.676 -0.1913 -0.9847  4.5034
  151PVA    H7225620   1.432   6.983   3.692  0.9135 -4.9083 -0.3433
  151PVA    C3725621   1.260   6.941   3.843 -0.5251 -0.5724  1.0638
  151PVA    H7325622   1.157   6.914   3.821 -1.5483  3.9520 -1.0134
  151PVA    H7425623   1.260   7.048   3.869 -1.5914  0.7649 -3.5329
  151PVA    C3825624   1.306   6.852   3.958 -0.3179  0.7272  0.1080
  151PVA    H7525625   1.404   6.810   3.930  0.3441  1.6521  0.9876
  151PVA    O1325626   1.209   6.746   3.960 -0.0748 -0.2497 -0.4941
  151PVA    H7625627   1.169   6.776   3.876  0.3182 -0.9881 -0.9590
  151PVA    C3925628   1.322   6.901   4.093 -0.2684  0.4666 -0.1773
  151PVA    H7725629   1.231   6.953   4.125 -0.4990  1.6841 -2.5316
  151PVA    H7825630   1.384   6.992   4.088 -0.7403  0.8192 -5.2509
  151PVA    C4025631   1.376   6.789   4.200 -1.1050 -0.2027  0.3594
  151PVA    H7925632   1.465   6.737   4.161  0.9423  2.8987  0.5509
  151PVA    H8025633   1.292   6.721   4.220 -0.4762 -0.5940  1.7516
  151PVA    C4125634   1.396   6.840   4.355 -0.0852 -0.1487  0.4156
  151PVA    H8125635   1.442   6.748   4.392  3.3418  1.9570  1.8174
  151PVA    O1425636   1.287   6.874   4.434  0.7673 -0.1236  0.6242
  151PVA    H8225637   1.211   6.888   4.375  1.4512 -1.6365 -0.6967
  151PVA    C4225638   1.512   6.939   4.401  0.7468 -0.2640 -0.9063
  151PVA    H8325639   1.521   6.925   4.509  1.8686 -1.6104 -1.1513
  151PVA    H8425640   1.604   6.903   4.354  3.5193 -0.1895  3.8458
  151PVA    C4325641   1.514   7.096   4.379 -0.5712 -0.2376  0.3811
  151PVA    H8525642   1.438   7.139   4.313  3.1294  4.3548 -1.5286
  151PVA    H8625643   1.598   7.110   4.309 -1.7230 -0.3045 -1.0747
  151PVA    C4425644   1.555   7.182   4.498  0.6766 -0.1163  0.3023
  151PVA    H8725645   1.485   7.168   4.581 -0.7582 -1.2349 -1.0215
  151PVA    O1525646   1.687   7.160   4.538 -0.0909 -0.1712  0.2130
  151PVA    H8825647   1.730   7.246   4.526 -3.8874  1.8623 -0.1440
  151PVA    C4525648   1.538   7.344   4.456 -0.1513  1.8966 -0.2374
  151PVA    H8925649   1.437   7.361   4.419 -0.2536 -2.6555 -2.7921
  151PVA    H9025650   1.592   7.379   4.367 -0.7960  4.6601  0.3704
  151PVA    C4625651   1.582   7.439   4.572 -0.0155  0.7538  0.0143
  151PVA    H9125652   1.654   7.511   4.530  0.3247  1.2121  1.3196
  151PVA    H9225653   1.641   7.390   4.650 -0.1103  0.3736 -0.1504
  151PVA    C4725654   1.461   7.510   4.644  0.4796 -0.8809 -0.1136
  151PVA    H9325655   1.370   7.489   4.587 -1.7877  3.4268  1.4572
  151PVA    O1625656   1.478   7.661   4.649  0.8635 -0.1845 -0.0078
  151PVA    H9425657   1.571   7.673   4.676  2.4168 -1.4405 -4.0959
  151PVA    C4825658   1.453   7.487   4.796  0.4341  0.2958 -0.1221
  151PVA    H9525659   1.446   7.379   4.809  0.6178 -0.2942 -3.8071
  151PVA    H9625660   1.535   7.529   4.856 -0.1477  0.0603  0.8452
  151PVA    C4925661   1.305   7.524   4.849 -0.6952  0.2350  0.0982
  151PVA    H9725662   1.247   7.447   4.796 -0.8145  1.7454 -2.0719
  151PVA    H9825663   1.287   7.628   4.820  0.4370  1.4536  3.3331
  151PVA    C5025664   1.277   7.509   4.999 -0.0548 -0.4969 -0.6054
  151PVA    H9925665   1.170   7.531   5.010 -0.2447 -0.9918 -1.3997
  151PVA    O1725666   1.285   7.374   5.048 -0.1785  0.4437 -0.3747
  151PVA   H10025667   1.198   7.331   5.043  0.6035 -1.5636  1.6511
  151PVA    C5125668   1.374   7.596   5.080 -1.0561  0.3400  0.3230
  151PVA   H10125669   1.478   7.562   5.068 -1.0864  0.4617 -0.3150
  151PVA   H10225670   1.356   7.578   5.187  0.0937  1.0057  0.6467
  152PVA     C125671   7.414   4.520   5.658  1.1817  0.2273 -0.0566
  152PVA     H125672   7.477   4.431   5.653  1.3371  0.1499  2.3103
  152PVA     H225673   7.392   4.552   5.760 -3.6186  0.7028 -1.0020
  152PVA     C225674   7.490   4.651   5.584 -0.0678 -0.0760 -0.9009
  152PVA     H325675   7.427   4.739   5.604 -2.2083 -1.1686 -2.4293
  152PVA     O125676   7.494   4.635   5.449  0.4325  0.6155  0.1551
  152PVA     H425677   7.477   4.541   5.434  1.0182  0.1554  2.0857
  152PVA     C325678   7.625   4.683   5.654  0.1182 -0.1683  0.8698
  152PVA     H525679   7.695   4.616   5.602 -1.5517  0.2180 -2.0723
  152PVA     H625680   7.637   4.650   5.758  2.2141  0.6796  0.9471
  152PVA     C425681   7.665   4.836   5.650 -0.0234 -1.1829 -0.2738
  152PVA     H725682   7.639   4.874   5.551  0.0184  0.7242  0.4110
  152PVA     H825683   7.610   4.872   5.738  6.0898  1.5781  3.0716
  152PVA     C525684   0.046   4.851   5.679  0.0111 -0.4525 -0.2118
  152PVA     H925685   0.099   4.784   5.609  2.3879  0.8818  0.1829
  152PVA     O225686   0.085   4.818   5.813 -0.6487 -0.5854  0.2403
  152PVA    H1025687   0.039   4.880   5.872 -2.8752  0.3438 -2.2422
  152PVA     C625688   0.091   4.997   5.631  0.6190  0.8579 -0.3268
  152PVA    H1125689   0.036   5.001   5.536  5.0301 -0.8791 -3.2770
  152PVA    H1225690   0.049   5.074   5.697 -3.5367 -2.5697  1.5463
  152PVA     C725691   0.231   5.014   5.590 -0.2326  0.5154  0.8931
  152PVA    H1325692   0.271   5.095   5.652  3.1133 -0.5874  0.3543
  152PVA    H1425693   0.218   5.051   5.488  4.6558  2.7923  0.8371
  152PVA     C825694   0.334   4.896   5.586  0.3536 -0.0744 -0.9047
  152PVA    H1525695   0.302   4.817   5.518  3.7109 -0.9622 -1.6631
  152PVA     O325696   0.359   4.851   5.716 -0.5319 -0.2991 -0.2970
  152PVA    H1625697   0.291   4.788   5.747 -1.4734  0.1372 -1.4037
  152PVA     C925698   0.472   4.941   5.531  0.1012  0.0652  0.4342
  152PVA    H1725699   0.548   4.876   5.577  0.0229  0.1155  0.6372
  152PVA    H1825700   0.481   5.045   5.564  0.1989  0.1693  0.0856
  152PVA    C1025701   0.505   4.944   5.380  0.4865  0.1078  0.0071
  152PVA    H1925702   0.442   4.872   5.327 -1.4406  3.0884 -2.0348
  152PVA    H2025703   0.466   5.041   5.346 -2.4781  0.2063  3.1511
  152PVA    C1125704   0.650   4.927   5.347 -1.7897 -0.3925  1.4232
  152PVA    H2125705   0.706   4.998   5.409 -3.8924 -1.4881  4.8542
  152PVA     O425706   0.684   4.802   5.378 -0.2096  0.1374  0.1324
  152PVA    H2225707   0.618   4.771   5.442  0.4023  0.4140  0.9093
  152PVA    C1225708   0.680   4.958   5.199 -0.3513 -0.0972 -0.9037
  152PVA    H2325709   0.735   4.868   5.168  1.8471  1.4584 -1.8074
  152PVA    H2425710   0.596   4.973   5.131  1.5351 -1.2946 -3.6814
  152PVA    C1325711   0.793   5.061   5.156  0.0166  0.5609  0.3502
  152PVA    H2525712   0.828   5.126   5.237 -2.8056 -3.4276  5.4451
  152PVA    H2625713   0.878   4.998   5.128 -0.1938 -0.1560  1.2729
  152PVA    C1425714   0.750   5.151   5.037 -0.1442 -0.4712  0.2996
  152PVA    H2725715   0.643   5.155   5.057 -0.2933 -3.2676  0.4478
  152PVA     O525716   0.750   5.064   4.922  0.8283 -0.4114 -0.1275
  152PVA    H2825717   0.766   4.978   4.965  0.7995 -1.0082 -1.2752
  152PVA    C1525718   0.825   5.276   4.997 -0.0962  0.4426 -0.6546
  152PVA    H2925719   0.923   5.239   4.963 -0.6812 -2.8126  0.8187
  152PVA    H3025720   0.851   5.342   5.081 -1.5923 -2.0276  1.9296
  152PVA    C1625721   0.778   5.353   4.869  0.9126  0.1393 -0.7249
  152PVA    H3125722   0.854   5.362   4.790 -0.7772 -1.1938 -2.6161
  152PVA    H3225723   0.697   5.302   4.816 -2.3798  4.5708 -0.4639
  152PVA    C1725724   0.734   5.502   4.899  1.1246  0.4792  0.3771
  152PVA    H3325725   0.687   5.557   4.816 -3.1015  0.5621  2.5612
  152PVA     O625726   0.630   5.499   5.003  0.6171  0.1180  0.4071
  152PVA    H3425727   0.670   5.524   5.088  2.4119  1.4316 -0.7487
  152PVA    C1825728   0.855   5.590   4.958 -0.4888  0.4484  0.2741
  152PVA    H3525729   0.853   5.582   5.068  3.2712 -2.6772  0.3425
  152PVA    H3625730   0.954   5.552   4.933 -0.8590  1.3225 -2.9581
  152PVA    C1925731   0.840   5.739   4.925 -0.1981 -0.1060 -0.3416
  152PVA    H3725732   0.746   5.763   4.975  0.1835  0.6602  0.0352
  152PVA    H3825733   0.831   5.750   4.817 -0.8737 -2.9843 -0.6659
  152PVA    C2025734   0.960   5.826   4.968  0.2721  0.0312  0.8615
  152PVA    H3925735   0.992   5.801   5.070 -1.7226 -0.0804  1.4902
  152PVA     O725736   1.078   5.801   4.889  1.0173  0.2007  0.5634
  152PVA    H4025737   1.065   5.814   4.793  1.5608 -0.3425  0.4072
  152PVA    C2125738   0.916   5.981   4.965 -0.8618  1.0565 -0.1479
  152PVA    H4125739   0.877   6.009   4.867 -1.0407 -0.5056 -0.5505
  152PVA    H4225740   0.835   6.004   5.036  2.8019  3.0354  3.8711
  152PVA    C2225741   1.028   6.083   5.006 -0.9920 -1.0052 -0.4103
  152PVA    H4325742   1.091   6.034   5.081  1.8848  3.6619  0.6197
  152PVA    H4425743   1.090   6.106   4.919 -0.7657  0.1075  0.0368
  152PVA    C2325744   0.993   6.221   5.071  0.0254 -0.3163  0.8577
  152PVA    H4525745   0.899   6.254   5.025  0.6771 -2.5663 -2.4384
  152PVA     O825746   0.955   6.185   5.206 -0.3113 -0.1626  0.3801
  152PVA    H4625747   1.028   6.152   5.261  1.0162  0.7188 -0.7604
  152PVA    C2425748   1.096   6.337   5.085  1.0952 -0.8833 -0.2547
  152PVA    H4725749   1.186   6.298   5.134  2.8453  1.2679 -1.5399
  152PVA    H4825750   1.115   6.353   4.978 -1.8354  4.5047 -0.3635
  152PVA    C2525751   1.045   6.461   5.150 -0.5035 -0.2574 -1.1807
  152PVA    H4925752   0.953   6.446   5.208  1.8313 -1.4840  2.5428
  152PVA    H5025753   1.022   6.532   5.070  0.4868  1.3742 -0.0923
  152PVA    C2625754   1.160   6.545   5.228  0.2400  0.4062 -0.4360
  152PVA    H5125755   1.223   6.479   5.289  0.4089  1.7593  0.9066
  152PVA     O925756   1.242   6.612   5.135  0.2372  0.6467 -0.5387
  152PVA    H5225757   1.297   6.660   5.199 -0.2346 -0.6952  0.9416
  152PVA    C2725758   1.110   6.654   5.329  0.5876  0.9849 -0.5488
  152PVA    H5325759   1.005   6.624   5.343  0.9072  0.4127  0.7915
  152PVA    H5425760   1.109   6.752   5.280 -0.9394  1.3369  0.1271
  152PVA    C2825761   1.189   6.672   5.464 -0.3354  0.1558  0.4834
  152PVA    H5525762   1.166   6.590   5.533  1.0380  0.8712  1.8578
  152PVA    H5625763   1.297   6.663   5.445 -0.3759  0.4722  0.0885
  152PVA    C2925764   1.176   6.804   5.548 -0.0850  0.7507  1.0270
  152PVA    H5725765   1.178   6.875   5.465  0.4033 -1.8481 -1.3348
  152PVA    O1025766   1.051   6.814   5.596 -0.3336 -0.1746 -0.8180
  152PVA    H5825767   0.982   6.840   5.531  0.3698  2.1891 -0.7277
  152PVA    C3025768   1.293   6.849   5.646  0.5176  0.3157 -0.9329
  152PVA    H5925769   1.298   6.785   5.735  0.4938 -0.3866 -1.4259
  152PVA    H6025770   1.385   6.833   5.588  1.4227  0.4076  0.4423
  152PVA    C3125771   1.285   7.008   5.674 -0.6868 -0.8619 -0.0471
  152PVA    H6125772   1.186   7.030   5.716 -0.5748  0.1611 -0.2824
  152PVA    H6225773   1.288   7.057   5.575  2.3604 -0.3594  0.2075
  152PVA    C3225774   1.410   7.063   5.747  0.1754 -0.2558 -1.1540
  152PVA    H6325775   1.497   7.038   5.685  1.7949 -3.6026  2.0586
  152PVA    O1125776   1.437   6.989   5.871 -0.0164  0.0151 -0.2796
  152PVA    H6425777   1.521   6.941   5.869  0.2238  0.4263 -0.1012
  152PVA    C3325778   1.414   7.213   5.767 -0.1378  0.2676  0.3789
  152PVA    H6525779   1.338   7.251   5.837  0.3749 -0.7449  1.5343
  152PVA    H6625780   1.387   7.259   5.672 -2.0357  0.2211  0.8608
  152PVA    C3425781   1.560   7.260   5.817  0.9849  0.2523 -0.2695
  152PVA    H6725782   1.604   7.234   5.914  2.6470 -3.3145 -1.8266
  152PVA    H6825783   1.639   7.225   5.749 -0.3897  1.0295 -2.3761
  152PVA    C3525784   1.562   7.418   5.827  0.1843 -0.3052 -1.2591
  152PVA    H6925785   1.505   7.441   5.918 -3.3089 -0.1169 -3.3198
  152PVA    O1225786   1.513   7.478   5.705 -0.6150  0.2857 -0.8577
  152PVA    H7025787   1.435   7.431   5.671 -0.0537 -0.6680 -0.8473
  152PVA    C3625788   1.709   7.467   5.831 -0.3243  0.4678  0.0441
  152PVA    H7125789   1.751   7.425   5.923  0.1041 -2.8441 -1.5340
  152PVA    H7225790   1.751   7.428   5.737 -2.7224 -2.3349 -0.0325
  152PVA    C3725791   1.738   7.618   5.837 -0.2203 -0.0586 -0.5556
  152PVA    H7325792   1.705   7.653   5.936 -1.6352  0.1663 -1.0781
  152PVA    H7425793   1.688   0.002   5.767  2.5530  1.5412 -1.1261
  152PVA    C3825794   1.893   7.654   5.825 -0.5403  0.4272  0.6101
  152PVA    H7525795   1.941   7.594   5.746 -0.2321  0.5202  0.7266
  152PVA    O1325796   1.959   7.649   5.955 -0.9737 -0.1335 -0.5185
  152PVA    H7625797   1.942   0.044   6.008 -2.5362 -1.7491  1.5416
  152PVA    C3925798   1.910   0.110   5.775 -1.3708  0.3196  0.0073
  152PVA    H7725799   1.882   0.176   5.859 -0.0569  2.3073 -1.0320
  152PVA    H7825800   1.846   0.147   5.694  0.6096  3.8742 -0.1437
  152PVA    C4025801   2.065   0.130   5.723  0.4335 -0.0310  0.2396
  152PVA    H7925802   2.082   0.065   5.636 -1.4500  2.4422 -2.1578
  152PVA    H8025803   2.137   0.096   5.799  0.7200 -1.7014 -0.7416
  152PVA    C4125804   2.107   0.266   5.670  0.0220  0.1384  0.1032
  152PVA    H8125805   2.038   0.318   5.603 -2.2696 -0.8445  1.5546
  152PVA    O1425806   2.127   0.350   5.785  0.7566  0.3520  0.3749
  152PVA    H8225807   2.037   0.373   5.811  0.1612 -0.7993 -0.5634
  152PVA    C4225808   2.244   0.257   5.594 -1.1792  0.3027  0.0247
  152PVA    H8325809   2.327   0.215   5.652 -1.4073  0.2584  0.3191
  152PVA    H8425810   2.236   0.192   5.507  1.3382  3.1424 -2.5908
  152PVA    C4325811   2.296   0.389   5.538  0.6756 -1.7381 -0.1284
  152PVA    H8525812   2.395   0.384   5.490 -0.2001 -1.3793 -2.0671
  152PVA    H8625813   2.325   0.436   5.633  0.7805 -0.9332 -0.5561
  152PVA    C4425814   2.204   0.460   5.429 -0.7389  0.6148 -0.2157
  152PVA    H8725815   2.266   0.533   5.376  2.0211 -1.9452 -0.8044
  152PVA    O1525816   2.117   0.530   5.504  0.4094 -0.3891  0.2151
  152PVA    H8825817   2.118   0.498   5.595 -1.7779 -1.9498 -0.2190
  152PVA    C4525818   2.129   0.357   5.337 -0.1105  0.3572  0.9581
  152PVA    H8925819   2.074   0.276   5.387 -3.6848  0.4818 -2.3150
  152PVA    H9025820   2.207   0.309   5.277 -0.3674  0.2441  0.7108
  152PVA    C4625821   2.043   0.419   5.228  1.0344  1.2428 -0.0874
  152PVA    H9125822   1.971   0.483   5.280  0.4764  1.7707 -1.4605
  152PVA    H9225823   2.096   0.506   5.186  2.2487  0.4460 -0.2701
  152PVA    C4725824   1.977   0.312   5.133  1.3372 -0.0908  0.5829
  152PVA    H9325825   1.876   0.290   5.170  1.3245 -0.3361  0.4046
  152PVA    O1625826   2.045   0.187   5.105  0.2120  0.8162  0.3011
  152PVA    H9425827   1.988   0.142   5.040 -0.2054  1.6373  0.0805
  152PVA    C4825828   1.918   0.378   5.012 -0.1001  1.0265  0.1499
  152PVA    H9525829   2.005   0.378   4.945 -0.1266  0.3388  0.1087
  152PVA    H9625830   1.893   0.483   5.034  4.2229  2.3741 -0.3734
  152PVA    C4925831   1.812   0.297   4.926  0.6658  0.3972  0.0476
  152PVA    H9725832   1.766   0.213   4.981  1.7081 -0.8682 -0.9370
  152PVA    H9825833   1.870   0.261   4.841 -0.9384 -1.0229 -0.5282
  152PVA    C5025834   1.690   0.369   4.871 -0.2426  0.4439  0.8168
  152PVA    H9925835   1.738   0.454   4.821  5.8307 -2.5925  0.6448
  152PVA    O1725836   1.637   0.302   4.754 -0.5188  0.1805  0.4628
  152PVA   H10025837   1.719   0.303   4.701  0.4752 -1.0896  1.8962
  152PVA    C5125838   1.571   0.376   4.975  0.5479 -0.2050  0.0251
  152PVA   H10125839   1.601   0.386   5.080  1.0659 -2.2719  0.1143
  152PVA   H10225840   1.514   0.469   4.972 -1.3685 -1.0375  3.8589
  153PVA     C125841   6.939   4.492   5.586  0.1341  0.1462  0.9602
  153PVA     H125842   6.913   4.590   5.629 -2.1956  0.2800 -0.5570
  153PVA     H225843   6.964   4.425   5.669 -3.1855  0.5074  2.4112
  153PVA     C225844   6.805   4.433   5.521  0.2244  1.4270  0.3262
  153PVA     H325845   6.755   4.404   5.614  1.1128  2.6124  1.2020
  153PVA     O125846   6.827   4.314   5.451 -1.1079 -0.7451  0.7705
  153PVA     H425847   6.913   4.327   5.407  0.5094 -1.1645  3.5199
  153PVA     C325848   6.731   4.528   5.422 -0.3122  0.1350  0.1407
  153PVA     H525849   6.801   4.559   5.343  0.0879  0.3780  0.5814
  153PVA     H625850   6.713   4.624   5.473 -0.0312  1.6686 -2.4509
  153PVA     C425851   6.612   4.462   5.356  0.2293  0.5561 -0.5216
  153PVA     H725852   6.623   4.365   5.304 -2.2039  1.3677 -2.8010
  153PVA     H825853   6.553   4.428   5.441  4.7879  0.1629  2.8527
  153PVA     C525854   6.528   4.558   5.263 -0.1585  0.9650 -0.7169
  153PVA     H925855   6.443   4.495   5.233  2.2769 -2.2193 -1.5026
  153PVA     O225856   6.488   4.680   5.332  1.5179  0.2169 -0.6052
  153PVA    H1025857   6.479   4.755   5.271 -2.2649  3.1883  2.9765
  153PVA     C625858   6.602   4.596   5.134  0.8538  0.1860 -0.2738
  153PVA    H1125859   6.682   4.667   5.156  1.7866 -0.8197 -0.3469
  153PVA    H1225860   6.657   4.507   5.100  3.9879  2.2478 -0.9433
  153PVA     C725861   6.499   4.648   5.037  0.0067 -1.1372  0.1870
  153PVA    H1325862   6.407   4.590   5.032  0.7676 -2.4824  1.0606
  153PVA    H1425863   6.475   4.747   5.078  0.6899 -2.2809  3.6969
  153PVA     C825864   6.537   4.658   4.887 -0.3008 -0.2049 -0.1826
  153PVA    H1525865   6.476   4.709   4.812 -0.2463  2.3741  1.4256
  153PVA     O325866   6.657   4.741   4.870  0.2386  0.3679 -0.1064
  153PVA    H1625867   6.626   4.831   4.888 -1.7172 -0.4427  0.9035
  153PVA     C925868   6.597   4.532   4.825 -0.0841  0.3784  0.3779
  153PVA    H1725869   6.666   4.495   4.902 -0.7748 -1.5776  0.1260
  153PVA    H1825870   6.648   4.545   4.728 -3.3853 -3.7116 -2.2969
  153PVA    C1025871   6.493   4.412   4.811  0.1100 -0.3171 -0.1398
  153PVA    H1925872   6.390   4.414   4.846 -0.3663  0.6540 -1.4665
  153PVA    H2025873   6.477   4.387   4.705 -0.8770 -3.1910  0.6144
  153PVA    C1125874   6.559   4.294   4.872 -0.2900 -1.4470  0.0500
  153PVA    H2125875   6.597   4.303   4.974  2.6660 -2.9808 -0.8100
  153PVA     O425876   6.641   4.248   4.763  0.5083 -0.6117 -0.8275
  153PVA    H2225877   6.691   4.328   4.741  2.2045 -0.7789  1.9383
  153PVA    C1225878   6.455   4.180   4.887  1.1310 -0.3172 -0.2479
  153PVA    H2325879   6.374   4.232   4.939  1.8666  2.6529 -1.8512
  153PVA    H2425880   6.427   4.157   4.784  2.5544 -1.6252 -0.3731
  153PVA    C1325881   6.502   4.052   4.954 -0.2453  0.1967  0.9541
  153PVA    H2525882   6.558   3.991   4.883  1.4972 -1.0356  3.2290
  153PVA    H2625883   6.419   3.991   4.992 -0.5195 -0.1138 -0.1125
  153PVA    C1425884   6.583   4.071   5.082  0.2229 -1.4195 -0.0644
  153PVA    H2725885   6.679   4.121   5.062  0.4098 -0.8177  2.0556
  153PVA     O525886   6.510   4.160   5.163  0.6111  0.3609  0.5080
  153PVA    H2825887   6.466   4.103   5.228  3.5730 -0.7868  1.6470
  153PVA    C1525888   6.615   3.939   5.152  0.5482  0.0885 -0.6999
  153PVA    H2925889   6.672   3.880   5.079  1.8723 -0.9699  1.1144
  153PVA    H3025890   6.521   3.887   5.170  1.0947 -1.7953 -2.8547
  153PVA    C1625891   6.705   3.940   5.272 -0.2263 -0.0227 -0.2751
  153PVA    H3125892   6.794   4.003   5.262  3.4463 -4.3714  1.3308
  153PVA    H3225893   6.645   3.976   5.357  1.2490  0.3678  0.6516
  153PVA    C1725894   6.750   3.797   5.317  0.4190 -0.0242  0.2265
  153PVA    H3325895   6.661   3.753   5.365 -1.8419  4.2868  0.4603
  153PVA     O625896   6.799   3.714   5.196 -0.4576 -0.0146 -0.2203
  153PVA    H3425897   6.716   3.694   5.149 -0.7899 -0.2008  0.4427
  153PVA    C1825898   6.864   3.785   5.417 -0.0225 -0.1186 -0.9231
  153PVA    H3525899   6.956   3.836   5.385  0.3235 -1.1576 -1.6203
  153PVA    H3625900   6.830   3.821   5.515  2.5783 -1.0730  0.4022
  153PVA    C1925901   6.909   3.641   5.458 -0.3293  0.7806  0.3534
  153PVA    H3725902   6.956   3.596   5.370  0.1180 -1.7324  1.8013
  153PVA    H3825903   6.813   3.589   5.472 -1.3160  2.2373 -0.6854
  153PVA    C2025904   7.022   3.633   5.572  0.8614  0.5951 -0.2886
  153PVA    H3925905   7.117   3.677   5.539  0.8184 -0.5167 -2.0716
  153PVA     O725906   6.981   3.720   5.680  0.4480  0.0327  0.5232
  153PVA    H4025907   7.066   3.767   5.674  3.0073 -4.2914 -3.4580
  153PVA    C2125908   7.029   3.497   5.647  0.7114  0.3363  0.3424
  153PVA    H4125909   6.948   3.479   5.718 -1.0431  2.4214 -0.9802
  153PVA    H4225910   7.032   3.417   5.573  1.9296  0.4304  0.2766
  153PVA    C2225911   7.158   3.485   5.732 -0.2234 -0.2589 -0.0086
  153PVA    H4325912   7.158   3.584   5.778 -0.7782  0.2652 -1.0953
  153PVA    H4425913   7.252   3.475   5.677  2.3742  0.2968  3.9013
  153PVA    C2325914   7.168   3.366   5.831 -0.1379  0.1506  1.3385
  153PVA    H4525915   7.101   3.373   5.917 -1.4740 -0.0343  0.3575
  153PVA     O825916   7.119   3.245   5.774 -0.8136  0.5603 -0.2542
  153PVA    H4625917   7.058   3.275   5.704 -0.7228 -1.4267 -1.2362
  153PVA    C2425918   7.310   3.348   5.894 -2.1381  1.1132  0.6950
  153PVA    H4725919   7.389   3.327   5.820 -2.3006 -2.1229  1.2715
  153PVA    H4825920   7.339   3.444   5.937  0.8758  0.4881  0.2867
  153PVA    C2525921   7.322   3.227   5.997  0.1191 -0.5924  0.9552
  153PVA    H4925922   7.224   3.221   6.047 -0.6814 -3.1443 -0.7389
  153PVA    H5025923   7.323   3.126   5.955  0.8734 -0.0115 -0.4908
  153PVA    C2625924   7.456   3.246   6.089  0.6723 -0.3333  0.4615
  153PVA    H5125925   7.461   3.336   6.151  0.1026 -0.8859  1.3227
  153PVA     O925926   7.571   3.224   6.000 -0.2545  0.4924 -0.7283
  153PVA    H5225927   7.574   3.128   5.986  1.3397  0.8445 -3.4928
  153PVA    C2725928   7.458   3.130   6.187 -0.4637  0.0374  1.1461
  153PVA    H5325929   7.473   3.034   6.137  3.6387  0.9497  0.2835
  153PVA    H5425930   7.363   3.112   6.239 -0.0913 -1.5112  1.3386
  153PVA    C2825931   7.580   3.144   6.287 -0.4616 -0.0460  0.2609
  153PVA    H5525932   7.611   3.045   6.324  3.0103  0.4549 -0.9214
  153PVA    H5625933   7.660   3.176   6.219  0.9547 -1.5093  1.1488
  153PVA    C2925934   7.593   3.256   6.385  1.1097 -1.1648  0.8942
  153PVA    H5725935   7.588   3.354   6.336  1.1014 -1.2833  0.6552
  153PVA    O1025936   7.498   3.249   6.477  1.3241  0.3194 -1.4786
  153PVA    H5825937   7.523   3.189   6.549 -0.1965  1.9067  0.4867
  153PVA    C3025938   7.725   3.267   6.453 -0.5126  0.3142  0.2465
  153PVA    H5925939   0.027   3.191   6.412  1.0998  1.9504 -0.2795
  153PVA    H6025940   7.706   3.247   6.560 -1.8670  0.1164 -0.0103
  153PVA    C3125941   0.048   3.403   6.434  0.4039  0.4987 -0.9447
  153PVA    H6125942   0.121   3.390   6.516 -2.5238  0.3729  1.8591
  153PVA    H6225943   0.102   3.408   6.339 -0.2389  4.4723 -1.2707
  153PVA    C3225944   7.737   3.531   6.471  0.8668  0.0252 -1.0818
  153PVA    H6325945   7.651   3.496   6.529  1.7157  2.1671  1.7087
  153PVA    O1125946   7.697   3.594   6.355  0.0774  1.6094  0.5194
  153PVA    H6425947   7.626   3.657   6.376 -0.4496  1.3412 -0.4207
  153PVA    C3325948   0.048   3.629   6.550  0.3492 -0.5159 -0.5048
  153PVA    H6525949   0.140   3.644   6.493  0.4730  0.7888  0.0067
  153PVA    H6625950   0.069   3.588   6.650 -0.1485  1.0542  0.2771
  153PVA    C3425951   7.751   3.768   6.584 -0.1253  0.9959 -1.0198
  153PVA    H6725952   7.652   3.787   6.541  0.5368  1.4706 -2.3968
  153PVA    H6825953   7.708   3.743   6.682 -2.6924 -6.4792 -3.3816
  153PVA    C3525954   0.084   3.889   6.600  0.7454  0.6609  0.1443
  153PVA    H6925955   0.138   3.901   6.505  0.0918 -2.1308 -0.6831
  153PVA    O1225956   0.019   4.012   6.621  0.0179  0.6446  0.1947
  153PVA    H7025957   7.712   3.981   6.679  1.8641 -0.0258  2.3207
  153PVA    C3625958   0.179   3.864   6.710 -0.5212 -0.0750 -0.7712
  153PVA    H7125959   0.229   3.767   6.696  0.7205  0.4344 -0.1148
  153PVA    H7225960   0.128   3.852   6.807 -0.6635 -1.6358 -1.0110
  153PVA    C3725961   0.275   3.982   6.730  1.1636 -0.3413  0.3168
  153PVA    H7325962   0.330   4.007   6.639  1.7974 -1.4524  0.3762
  153PVA    H7425963   0.214   4.073   6.736 -1.2390 -1.7229 -1.5072
  153PVA    C3825964   0.374   3.972   6.842 -0.2417 -0.5121 -0.2896
  153PVA    H7525965   0.303   3.993   6.924 -1.0879  2.7480 -1.7104
  153PVA    O1325966   0.423   3.850   6.881 -0.6920  0.2764 -0.4598
  153PVA    H7625967   0.432   3.815   6.790  0.0009  0.7768 -0.5915
  153PVA    C3925968   0.462   4.091   6.853 -0.2861 -0.2412 -0.1593
  153PVA    H7725969   0.491   4.103   6.958 -1.2954  1.6537 -0.0526
  153PVA    H7825970   0.411   4.183   6.824 -2.1349 -1.1983 -0.1389
  153PVA    C4025971   0.594   4.088   6.766  0.2244 -0.9464  0.6637
  153PVA    H7925972   0.660   4.009   6.805  2.6988  0.6738 -0.0478
  153PVA    H8025973   0.578   4.067   6.660  1.6279 -1.4191  0.5348
  153PVA    C4125974   0.670   4.225   6.751 -1.1726  0.9175  0.9131
  153PVA    H8125975   0.641   4.301   6.677  1.5966  0.3608 -0.8730
  153PVA    O1425976   0.690   4.294   6.875  1.1032 -0.6470 -0.4938
  153PVA    H8225977   0.786   4.300   6.883  0.9821 -0.5556  1.2617
  153PVA    C4225978   0.807   4.178   6.693 -0.4039  0.7988 -0.5122
  153PVA    H8325979   0.866   4.264   6.657  1.9401 -0.0794  1.0062
  153PVA    H8425980   0.795   4.107   6.610  0.2052 -1.2060  1.0478
  153PVA    C4325981   0.902   4.107   6.797 -0.2416 -0.0157 -0.0870
  153PVA    H8525982   0.864   4.008   6.823 -2.2074  0.4074 -1.1997
  153PVA    H8625983   0.908   4.170   6.887 -2.6414 -0.0759  0.1669
  153PVA    C4425984   1.055   4.081   6.747 -0.2753  0.4569 -0.1477
  153PVA    H8725985   1.097   4.182   6.734 -0.0139  0.2495 -0.9947
  153PVA    O1525986   1.059   4.000   6.626 -0.2667  0.2430 -0.5066
  153PVA    H8825987   1.119   4.051   6.570 -2.6871  1.6997 -1.9298
  153PVA    C4525988   1.168   4.003   6.842 -0.3932 -0.4393  0.0063
  153PVA    H8925989   1.122   3.906   6.869 -2.4056  0.4618 -0.0064
  153PVA    H9025990   1.184   4.038   6.945  0.3597 -3.1382  0.9120
  153PVA    C4625991   1.299   3.968   6.772 -0.4679 -0.6568  0.0739
  153PVA    H9125992   1.292   3.969   6.662 -0.1459  2.8960 -0.0257
  153PVA    H9225993   1.370   4.051   6.782  0.0629 -0.9986 -0.6519
  153PVA    C4725994   1.346   3.823   6.831 -0.7618 -0.2116  1.2879
  153PVA    H9325995   1.270   3.748   6.806  0.0709 -0.1668 -1.7468
  153PVA    O1625996   1.366   3.825   6.966 -0.4689 -0.0549 -0.5254
  153PVA    H9425997   1.285   3.832   7.020  0.3767 -1.0482  0.9512
  153PVA    C4825998   1.478   3.755   6.769  0.1108 -0.0389  0.5711
  153PVA    H9525999   1.484   3.739   6.660  2.6997 -2.0486  0.9137
  153PVA    H9626000   1.562   3.822   6.791 -1.4161  1.7149  1.3794
  153PVA    C4926001   1.526   3.610   6.801 -0.0359 -0.2799  0.1030
  153PVA    H9726002   1.455   3.527   6.796  2.0490 -2.2689  1.3827
  153PVA    H9826003   1.551   3.594   6.906  0.2059 -2.5903 -0.2606
  153PVA    C5026004   1.662   3.561   6.718  1.4674  0.4805  0.0558
  153PVA    H9926005   1.713   3.656   6.696 -0.2949  0.5386 -5.4351
  153PVA    O1726006   1.619   3.509   6.593 -0.4642  0.1319 -0.9919
  153PVA   H10026007   1.701   3.470   6.560 -0.6845  0.0183 -1.4065
  153PVA    C5126008   1.754   3.444   6.775  0.9330  0.4022  0.2849
  153PVA   H10126009   1.788   3.488   6.870 -2.8173 -2.0231  3.0621
  153PVA   H10226010   1.677   3.373   6.810 -2.3037  2.3841 -2.2007
  154PVA     C126011   1.077   0.438   5.680  0.2196 -0.5084  0.1123
  154PVA     H126012   1.147   0.426   5.764  0.7345  2.2581  0.1835
  154PVA     H226013   0.984   0.479   5.721  1.0669 -0.1784  1.8157
  154PVA     C226014   1.134   0.532   5.574  0.2340 -0.1506  1.3054
  154PVA     H326015   1.069   0.521   5.487  0.3282  2.2740  0.8613
  154PVA     O126016   1.132   0.670   5.618 -0.0303  0.6701  1.0093
  154PVA     H426017   1.054   0.722   5.593 -0.1117 -0.6691 -1.9579
  154PVA     C326018   1.273   0.488   5.523 -0.3206 -1.1283  0.4661
  154PVA     H526019   1.280   0.385   5.487  2.5449  0.1348 -3.2356
  154PVA     H626020   1.357   0.489   5.594  1.3008  2.9826 -1.2345
  154PVA     C426021   1.321   0.564   5.406  0.7577 -0.7084 -0.0780
  154PVA     H726022   1.252   0.543   5.323  0.0049  0.6004  0.1909
  154PVA     H826023   1.417   0.525   5.369 -0.5438 -2.8070 -1.4852
  154PVA     C526024   1.339   0.716   5.414 -0.1282  1.1898  0.6119
  154PVA     H926025   1.238   0.758   5.421 -0.7378  0.2572 -1.7161
  154PVA     O226026   1.380   0.768   5.289 -0.4895  0.8803  0.1283
  154PVA    H1026027   1.419   0.856   5.296 -0.0009  0.8685 -1.8281
  154PVA     C626028   1.444   0.773   5.512  0.5650 -0.5205  0.3316
  154PVA    H1126029   1.436   0.696   5.590 -3.0840 -0.4307  0.2276
  154PVA    H1226030   1.547   0.756   5.480 -0.2188 -1.8750 -1.6122
  154PVA     C726031   1.428   0.923   5.542 -1.3130 -0.2507  0.4330
  154PVA    H1326032   1.332   0.925   5.595 -0.2843  0.3756  2.3639
  154PVA    H1426033   1.422   0.994   5.458 -2.8756 -1.9051 -0.9198
  154PVA     C826034   1.533   0.967   5.647  0.2927  1.0572  0.5505
  154PVA    H1526035   1.527   1.076   5.661 -0.0950  1.7098 -3.3975
  154PVA     O326036   1.498   0.883   5.763 -0.0609 -0.3959  0.2659
  154PVA    H1626037   1.463   0.944   5.830 -4.6188 -2.1277 -0.1772
  154PVA     C926038   1.680   0.941   5.618  1.2037  0.9825  0.4195
  154PVA    H1726039   1.714   0.993   5.528 -1.5012  2.5512  0.1884
  154PVA    H1826040   1.699   0.836   5.593  2.3489  1.1406  0.5694
  154PVA    C1026041   1.773   0.966   5.737 -0.1197 -0.7378 -0.7459
  154PVA    H1926042   1.743   0.900   5.819 -1.1756  0.3703 -0.2060
  154PVA    H2026043   1.858   0.914   5.689 -2.0425 -2.5913 -2.3523
  154PVA    C1126044   1.808   1.110   5.764  0.9567  0.6931  0.3117
  154PVA    H2126045   1.712   1.159   5.783  1.4605  1.5839  0.6064
  154PVA     O426046   1.867   1.160   5.640  0.4617 -0.0481 -0.3132
  154PVA    H2226047   1.962   1.163   5.659  0.0061 -1.3922  2.7660
  154PVA    C1226048   1.906   1.130   5.882  0.1313  0.4146  0.8340
  154PVA    H2326049   1.968   1.042   5.901 -0.7648 -0.8426 -1.5793
  154PVA    H2426050   1.978   1.206   5.848 -1.4202  0.6117 -2.3975
  154PVA    C1326051   1.836   1.182   6.016  0.6915  1.1511  0.3154
  154PVA    H2526052   1.762   1.107   6.046  2.7644 -1.4649 -0.7638
  154PVA    H2626053   1.779   1.274   5.995 -0.5522 -0.4347 -4.6008
  154PVA    C1426054   1.928   1.198   6.133 -0.0021  0.8571 -0.4105
  154PVA    H2726055   2.022   1.243   6.098  3.2928 -0.7829  4.9826
  154PVA     O526056   1.958   1.069   6.213  0.4487 -1.3418 -0.5996
  154PVA    H2826057   2.005   0.997   6.168 -0.7550 -2.4640 -0.1591
  154PVA    C1526058   1.859   1.288   6.240 -0.6041 -0.8536 -1.0218
  154PVA    H2926059   1.756   1.253   6.251  0.0035 -2.7298 -1.0869
  154PVA    H3026060   1.913   1.281   6.335  0.9969 -3.7389 -2.0299
  154PVA    C1626061   1.863   1.433   6.207 -1.2781  0.4675  1.0682
  154PVA    H3126062   1.962   1.456   6.166 -0.7538  0.2873  2.1772
  154PVA    H3226063   1.777   1.462   6.145 -2.2942 -0.8952  1.7703
  154PVA    C1726064   1.852   1.530   6.333  0.0533  0.0152 -0.4459
  154PVA    H3326065   1.766   1.488   6.386 -0.7612 -0.0491 -1.7519
  154PVA     O626066   1.964   1.534   6.423  0.5286 -0.3651  0.7022
  154PVA    H3426067   1.979   1.449   6.468 -3.2468  0.6804  4.4959
  154PVA    C1826068   1.819   1.674   6.288 -1.0625 -0.6846  0.4451
  154PVA    H3526069   1.801   1.702   6.183 -1.0406 -1.5840  0.1931
  154PVA    H3626070   1.721   1.695   6.333 -0.0120 -0.3099  2.7226
  154PVA    C1926071   1.918   1.785   6.349 -0.4507 -0.6729  0.9827
  154PVA    H3726072   1.903   1.870   6.281  0.7594 -1.4846 -0.3666
  154PVA    H3826073   2.025   1.766   6.363 -0.6061 -0.9503  1.8205
  154PVA    C2026074   1.887   1.860   6.482 -0.6663 -0.0908  0.5505
  154PVA    H3926075   1.780   1.885   6.484 -0.2663  1.7583  1.1991
  154PVA     O726076   1.915   1.768   6.578  0.3513  0.5778  0.4817
  154PVA    H4026077   1.942   1.687   6.532  0.2653  1.4797 -1.2660
  154PVA    C2126078   1.965   1.986   6.506 -1.2671 -1.4480 -0.2603
  154PVA    H4126079   1.920   2.077   6.467  4.4570  1.2602 -1.5828
  154PVA    H4226080   2.047   1.985   6.433 -1.1592  2.9250 -0.4395
  154PVA    C2226081   2.026   2.021   6.660 -0.1365 -0.8592  0.1041
  154PVA    H4326082   1.946   2.063   6.722  0.8658 -0.4862  1.1808
  154PVA    H4426083   2.048   1.928   6.714 -0.5870 -1.1087 -0.1339
  154PVA    C2326084   2.140   2.130   6.659 -0.1849  0.5242 -0.4080
  154PVA    H4526085   2.139   2.171   6.557 -0.3017 -0.9821 -1.0460
  154PVA     O826086   2.094   2.234   6.747 -0.5937  0.3544 -0.4902
  154PVA    H4626087   2.134   2.316   6.713 -0.1732 -0.6027 -2.4575
  154PVA    C2426088   2.283   2.074   6.690 -0.3196 -1.6342 -0.0668
  154PVA    H4726089   2.339   2.074   6.596  0.4485 -2.6681  0.3644
  154PVA    H4826090   2.286   1.973   6.732  1.0179 -0.0869  4.0666
  154PVA    C2526091   2.387   2.155   6.767  0.0518  0.9898  0.2545
  154PVA    H4926092   2.392   2.253   6.718 -1.7196  2.7704  3.3224
  154PVA    H5026093   2.333   2.195   6.854 -1.0339  3.0382 -1.2585
  154PVA    C2626094   2.530   2.108   6.772  0.0273 -1.2025  0.4287
  154PVA    H5126095   2.545   2.025   6.841  2.3974 -0.2067  1.2282
  154PVA     O926096   2.586   2.077   6.640 -0.2162 -0.8870 -0.2993
  154PVA    H5226097   2.666   2.027   6.666  1.0284 -0.0973 -2.3822
  154PVA    C2726098   2.607   2.236   6.839  0.2904  1.3057  0.6337
  154PVA    H5326099   2.575   2.226   6.943 -0.9695 -0.7415  0.0987
  154PVA    H5426100   2.582   2.331   6.790 -2.4537  0.1018 -0.5386
  154PVA    C2826101   2.763   2.235   6.850 -0.0405  1.0278  0.6332
  154PVA    H5526102   2.785   2.173   6.939  1.5165  0.5973 -0.0235
  154PVA    H5626103   2.819   2.178   6.775  0.6780  4.1231 -1.3636
  154PVA    C2926104   2.820   2.372   6.869 -0.0898 -0.1445 -0.8443
  154PVA    H5726105   2.729   2.433   6.870 -1.5054 -2.1169  1.0175
  154PVA    O1026106   2.861   2.380   7.007  0.2352  0.1402  0.5492
  154PVA    H5826107   2.841   2.473   7.027  0.5303  0.6004 -1.1413
  154PVA    C3026108   2.940   2.415   6.779  0.0784  0.0637  1.1020
  154PVA    H5926109   3.022   2.450   6.844 -0.6358 -1.4135  2.9029
  154PVA    H6026110   2.994   2.321   6.758  2.1554  1.1903  1.0691
  154PVA    C3126111   2.916   2.514   6.659  0.1901 -0.0081  0.6290
  154PVA    H6126112   2.828   2.575   6.680 -1.0014 -0.8267 -1.5913
  154PVA    H6226113   2.895   2.462   6.564  1.5483  1.5670 -0.6113
  154PVA    C3226114   3.033   2.607   6.603 -1.3946 -0.0461 -0.1462
  154PVA    H6326115   3.128   2.582   6.652 -0.3190  1.0297 -1.5722
  154PVA    O1126116   3.048   2.576   6.469 -0.0565  0.1640  1.0589
  154PVA    H6426117   3.142   2.567   6.445  0.1947  2.6784  0.8882
  154PVA    C3326118   3.010   2.763   6.619 -1.4150 -0.1133  0.6872
  154PVA    H6526119   2.907   2.777   6.585 -1.1238 -1.1049 -0.7314
  154PVA    H6626120   3.009   2.793   6.724 -3.3941  2.2196  0.0798
  154PVA    C3426121   3.098   2.872   6.543  0.6370  0.2363 -0.8486
  154PVA    H6726122   3.155   2.817   6.467  3.5230  3.8822 -1.5888
  154PVA    H6826123   3.026   2.940   6.495  2.8284  2.6778 -0.8704
  154PVA    C3526124   3.201   2.959   6.621 -0.9243 -0.2786 -0.6497
  154PVA    H6926125   3.276   2.894   6.667  1.7215  1.7300 -1.8800
  154PVA    O1226126   3.256   3.025   6.515  0.3141 -0.8019 -0.2537
  154PVA    H7026127   3.349   3.041   6.539  0.3248 -1.1758 -0.0481
  154PVA    C3626128   3.145   3.052   6.722 -0.9837  0.0465  0.4451
  154PVA    H7126129   3.053   3.073   6.667 -0.7984 -2.0347 -0.7719
  154PVA    H7226130   3.106   2.995   6.807  0.4366 -0.1950  0.9638
  154PVA    C3726131   3.221   3.184   6.769 -0.5544  0.1068  0.3014
  154PVA    H7326132   3.242   3.247   6.682 -0.3293 -0.6504 -0.2072
  154PVA    H7426133   3.314   3.179   6.827  0.3818  4.3608 -0.5050
  154PVA    C3826134   3.120   3.251   6.857 -1.1168 -0.1956 -0.0876
  154PVA    H7526135   3.066   3.172   6.912  0.2640 -0.1151  1.4471
  154PVA    O1326136   3.029   3.327   6.780 -0.0400  0.3113 -0.1247
  154PVA    H7626137   2.952   3.340   6.839 -0.1843  3.1390 -0.7829
  154PVA    C3926138   3.170   3.335   6.969  0.6657 -1.0692 -0.6444
  154PVA    H7726139   3.185   3.440   6.942 -1.6930 -0.7521 -0.9510
  154PVA    H7826140   3.261   3.292   7.013 -0.0079 -3.3779 -1.3776
  154PVA    C4026141   3.064   3.348   7.080 -0.7502  0.5312  0.3111
  154PVA    H7926142   3.045   3.247   7.121 -0.5882  2.0164  4.4808
  154PVA    H8026143   2.966   3.364   7.033 -0.6993 -3.0889 -1.4356
  154PVA    C4126144   3.112   3.439   7.198 -0.6689 -0.3526 -1.4935
  154PVA    H8126145   3.179   3.516   7.159  2.3538 -1.1385  1.6059
  154PVA    O1426146   3.190   3.346   7.276 -0.0394 -0.3689  0.1806
  154PVA    H8226147   3.219   3.405   7.349  0.4310  0.6502 -0.7923
  154PVA    C4226148   3.002   3.494   7.290 -0.2150  0.1491  0.0328
  154PVA    H8326149   2.914   3.436   7.260  0.0552 -1.0638  1.4423
  154PVA    H8426150   3.009   3.467   7.396  1.6853 -2.2746 -0.6236
  154PVA    C4326151   3.002   3.653   7.296 -0.0406  0.9650 -0.0136
  154PVA    H8526152   3.020   3.681   7.191  1.0378 -2.2277 -0.8262
  154PVA    H8626153   3.082   3.692   7.359 -0.6997  1.0871  0.7536
  154PVA    C4426154   2.881   3.725   7.346  0.2950  0.2778 -0.8405
  154PVA    H8726155   2.872   3.819   7.291 -1.4846  0.9359  0.4670
  154PVA    O1526156   2.903   3.760   7.478  0.1388  0.5220 -0.6559
  154PVA    H8826157   2.875   3.851   7.499  0.9339  1.8182 -4.4007
  154PVA    C4526158   2.734   3.669   7.366  0.6121  0.9868 -0.0723
  154PVA    H8926159   2.685   3.680   7.463  1.3871  4.7820  0.0521
  154PVA    H9026160   2.752   3.562   7.383 -0.6547  0.9986  1.5689
  154PVA    C4626161   2.611   3.700   7.273  0.0626  0.5826  0.5113
  154PVA    H9126162   2.575   3.803   7.282 -1.4882 -0.0661  2.5309
  154PVA    H9226163   2.640   3.711   7.168  0.2294  3.3416  0.7807
  154PVA    C4726164   2.495   3.596   7.259  0.7319  0.8513 -0.0007
  154PVA    H9326165   2.547   3.503   7.283  0.6218  0.9335  0.5748
  154PVA    O1626166   2.404   3.603   7.365  0.0451  0.6570 -0.6160
  154PVA    H9426167   2.424   3.633   7.456 -1.7750 -1.0840  0.4447
  154PVA    C4826168   2.427   3.591   7.111  0.8674 -1.1731  0.4043
  154PVA    H9526169   2.326   3.630   7.131  0.9739 -0.6928  0.0361
  154PVA    H9626170   2.475   3.668   7.049 -1.0505  0.4055  0.7552
  154PVA    C4926171   2.388   3.464   7.031  0.3690  0.5804  0.3488
  154PVA    H9726172   2.457   3.379   7.037  0.1126  0.3353 -0.0956
  154PVA    H9826173   2.306   3.409   7.078  0.8687 -1.4104 -0.9750
  154PVA    C5026174   2.339   3.469   6.881 -0.1950  0.0043  0.0554
  154PVA    H9926175   2.433   3.458   6.827 -0.1430 -1.6520  0.4280
  154PVA    O1726176   2.279   3.587   6.846  0.6033 -0.7129  0.3326
  154PVA   H10026177   2.211   3.561   6.782  0.4702 -1.4844  0.7796
  154PVA    C5126178   2.240   3.360   6.834 -0.1260  0.4817  0.5921
  154PVA   H10126179   2.186   3.333   6.926  2.7482 -0.1633  2.2279
  154PVA   H10226180   2.307   3.275   6.817  0.9481  1.8632 -2.7649
  155PVA     C126181   0.793   7.679   5.731  0.3489  0.0003  0.6450
  155PVA     H126182   0.884   7.617   5.731  0.1680 -0.4290  3.7810
  155PVA     H226183   0.716   7.623   5.677 -0.1468 -0.8083  2.1350
  155PVA     C226184   0.755   0.014   5.872  0.6858 -0.2554  0.3549
  155PVA     H326185   0.822   0.090   5.914  0.3280  0.2313  0.0555
  155PVA     O126186   0.626   0.070   5.904  0.2176  0.4575 -0.0439
  155PVA     H426187   0.605   0.137   5.836 -3.4410  3.2446  3.3460
  155PVA     C326188   0.766   7.570   5.955  0.9534  0.3427  0.1076
  155PVA     H526189   0.828   7.581   6.045  3.0770 -2.5871 -0.8419
  155PVA     H626190   0.825   7.497   5.899  1.7816  2.6215 -2.1567
  155PVA     C426191   0.633   7.496   5.996  0.3803  0.5173  0.0787
  155PVA     H726192   0.572   7.572   6.048  0.7668 -0.7384  2.5240
  155PVA     H826193   0.576   7.463   5.908 -0.4142 -1.8148  1.3705
  155PVA     C526194   0.664   7.374   6.087  0.2421 -0.1994  0.3664
  155PVA     H926195   0.647   7.420   6.186 -5.4908 -1.2041  0.1975
  155PVA     O226196   0.791   7.324   6.080  0.1623  0.7650 -0.2017
  155PVA    H1026197   0.843   7.390   6.127  0.1347  1.8501 -1.6152
  155PVA     C626198   0.558   7.260   6.072 -0.0540 -0.1699  0.6791
  155PVA    H1126199   0.455   7.293   6.089 -0.7228 -1.9680  0.3288
  155PVA    H1226200   0.573   7.237   5.965 -2.0824  1.0226  0.0941
  155PVA     C726201   0.590   7.122   6.150  1.4704  0.2003  1.2781
  155PVA    H1326202   0.570   7.151   6.254 -0.4441 -0.5602  1.1651
  155PVA    H1426203   0.695   7.092   6.152  0.5644 -3.9325 -1.2860
  155PVA     C826204   0.498   7.006   6.119 -0.5888  0.8293  0.2881
  155PVA    H1526205   0.393   7.033   6.131 -0.9359  0.7023 -1.9690
  155PVA     O326206   0.536   6.982   5.981 -0.5256  0.2088 -0.3413
  155PVA    H1626207   0.577   6.894   5.989 -0.3851  0.0382 -2.4386
  155PVA     C926208   0.514   6.878   6.204  0.3721  0.4487  0.4843
  155PVA    H1726209   0.502   6.912   6.308  0.7541  0.5926  0.4814
  155PVA    H1826210   0.617   6.843   6.193  1.1540  2.9631 -1.1388
  155PVA    C1026211   0.398   6.772   6.171 -0.7846  0.0812  0.9021
  155PVA    H1926212   0.294   6.806   6.183 -1.5394 -0.3107 -3.1904
  155PVA    H2026213   0.396   6.766   6.062 -0.0540  3.5395  0.5690
  155PVA    C1126214   0.422   6.628   6.225  0.4807  0.8997 -0.3443
  155PVA    H2126215   0.493   6.628   6.309 -0.8249 -0.1472  0.8029
  155PVA     O426216   0.482   6.547   6.118 -0.3099 -0.2590  0.0622
  155PVA    H2226217   0.408   6.506   6.070 -0.4532  0.3349 -0.2355
  155PVA    C1226218   0.301   6.557   6.291 -0.1573 -1.0597  0.5970
  155PVA    H2326219   0.273   6.609   6.383 -1.3269 -2.7474  1.2379
  155PVA    H2426220   0.211   6.572   6.230 -0.6719  3.1134  2.0431
  155PVA    C1326221   0.338   6.419   6.343  1.2981  0.8183 -0.2714
  155PVA    H2526222   0.433   6.429   6.397  0.8349  1.0441  0.5279
  155PVA    H2626223   0.365   6.346   6.266  0.8923  2.2965 -1.8743
  155PVA    C1426224   0.238   6.355   6.446 -0.7809 -0.3893  0.4246
  155PVA    H2726225   0.250   6.394   6.548  0.4383  1.6737 -0.4304
  155PVA     O526226   0.104   6.387   6.412 -1.1473  0.2206  0.0967
  155PVA    H2826227   0.122   6.352   6.323  1.8077 -2.9057  1.6984
  155PVA    C1526228   0.235   6.198   6.456 -0.2854 -1.2068  0.3818
  155PVA    H2926229   0.317   6.153   6.511  0.4244 -2.8716 -1.9118
  155PVA    H3026230   0.229   6.152   6.357 -3.0371  1.8184 -1.0662
  155PVA    C1626231   0.118   6.133   6.538 -0.8158  0.4823 -0.6548
  155PVA    H3126232   0.087   6.195   6.622 -0.1912  2.7024 -1.9837
  155PVA    H3226233   0.025   6.137   6.480 -1.6866 -1.5367  0.4841
  155PVA    C1726234   0.137   5.973   6.574 -0.6048  0.2767  1.4577
  155PVA    H3326235   0.173   5.909   6.492  3.4741  0.9030  2.5640
  155PVA     O626236   0.225   5.976   6.688 -0.4427  0.4805 -0.9027
  155PVA    H3426237   0.209   5.886   6.723 -2.2518  2.3105  3.8525
  155PVA    C1826238   0.005   5.902   6.624  0.2035 -0.8899 -0.1844
  155PVA    H3526239   7.734   5.968   6.704 -0.6223 -3.0621  1.3147
  155PVA    H3626240   7.685   5.905   6.555  0.4771 -2.2043 -0.6114
  155PVA    C1926241   0.016   5.758   6.677  0.5279 -1.2478 -0.5991
  155PVA    H3726242   0.069   5.767   6.772  1.3252 -1.6723 -0.9965
  155PVA    H3826243   0.082   5.703   6.609 -0.2152 -0.4431 -2.0228
  155PVA    C2026244   7.652   5.670   6.706  0.7392 -0.8438 -0.5081
  155PVA    H3926245   7.624   5.705   6.806  2.8623  1.0108 -0.4896
  155PVA     O726246   7.550   5.706   6.618  0.4131  0.3273 -1.0848
  155PVA    H4026247   7.554   5.800   6.642 -0.5869 -0.0075  0.5842
  155PVA    C2126248   7.673   5.523   6.733 -0.2282 -0.4022 -0.0785
  155PVA    H4126249   7.745   5.503   6.812 -3.6668  1.3882  3.8998
  155PVA    H4226250   7.716   5.500   6.634  0.0831  3.0592 -0.8833
  155PVA    C2226251   7.557   5.425   6.771 -0.6033 -0.3272 -0.0281
  155PVA    H4326252   7.503   5.459   6.861 -2.2135 -2.1192 -0.2696
  155PVA    H4426253   7.615   5.347   6.821 -1.2141 -0.6645  0.1694
  155PVA    C2326254   7.477   5.374   6.648  0.2407  0.1626  0.5953
  155PVA    H4526255   7.542   5.316   6.581  0.1870 -2.2545  2.5232
  155PVA     O826256   7.411   5.476   6.566 -0.9977 -0.7167 -0.5923
  155PVA    H4626257   7.456   5.559   6.591 -3.8698  0.2220  2.1268
  155PVA    C2426258   7.373   5.271   6.685  0.1945  0.2639 -0.3849
  155PVA    H4726259   7.425   5.189   6.737 -2.3150 -1.5138 -0.4592
  155PVA    H4826260   7.310   5.314   6.765  2.6273 -0.4872  2.1064
  155PVA    C2526261   7.300   5.204   6.560  1.1837 -0.2281 -0.3459
  155PVA    H4926262   7.384   5.194   6.490  1.6973 -0.2542  0.2662
  155PVA    H5026263   7.212   5.259   6.523 -0.1049 -0.0926  2.6522
  155PVA    C2626264   7.241   5.052   6.581 -0.0963 -0.7955  0.8691
  155PVA    H5126265   7.321   4.982   6.608 -0.3776 -1.6862 -0.4880
  155PVA     O926266   7.135   5.055   6.677 -0.3268  0.3950 -0.7001
  155PVA    H5226267   7.152   4.976   6.730  3.6906  0.4922 -1.5543
  155PVA    C2726268   7.197   4.975   6.453  0.4274  0.9063 -0.2461
  155PVA    H5326269   7.285   4.969   6.387  0.5334 -1.8099  0.0376
  155PVA    H5426270   7.116   5.015   6.390 -0.0610  2.9465  1.5746
  155PVA    C2826271   7.179   4.819   6.495  0.3367  0.1885 -0.1875
  155PVA    H5526272   7.277   4.769   6.486 -0.5925 -2.3889  2.3803
  155PVA    H5626273   7.136   4.806   6.595 -0.5572  2.8383 -0.1593
  155PVA    C2926274   7.084   4.736   6.405  0.0366  0.3149  0.0703
  155PVA    H5726275   7.114   4.720   6.301  0.6559  3.9531 -0.4491
  155PVA    O1026276   6.958   4.802   6.400 -0.1385  0.2191  0.1418
  155PVA    H5826277   6.971   4.884   6.349  0.9796  1.8203  2.7391
  155PVA    C3026278   7.044   4.600   6.473  0.2323  0.1541  0.4666
  155PVA    H5926279   7.131   4.563   6.528  2.5114 -1.2808 -3.6346
  155PVA    H6026280   6.959   4.605   6.542 -3.5204  1.3980 -3.7715
  155PVA    C3126281   7.002   4.486   6.385 -0.9152  0.5716 -0.5515
  155PVA    H6126282   7.088   4.443   6.332 -0.0588 -0.1059  1.3139
  155PVA    H6226283   6.935   4.531   6.310 -2.4280 -0.2931  0.2420
  155PVA    C3226284   6.945   4.363   6.460 -1.2062  0.2132 -0.0908
  155PVA    H6326285   6.887   4.399   6.546 -3.6470 -2.0540 -0.6706
  155PVA    O1126286   7.042   4.269   6.509 -0.2222 -0.6053 -0.8432
  155PVA    H6426287   7.033   4.267   6.606  1.8956 -2.5197 -0.6085
  155PVA    C3326288   6.840   4.279   6.379 -0.2886 -0.5774  0.9901
  155PVA    H6526289   6.901   4.213   6.315 -3.8393  0.0481 -3.5231
  155PVA    H6626290   6.804   4.343   6.297 -2.3884 -1.7902  0.9121
  155PVA    C3426291   6.710   4.227   6.445 -0.5095 -0.2805 -0.4041
  155PVA    H6726292   6.731   4.241   6.552  2.1375  0.6925 -0.9849
  155PVA    H6826293   6.633   4.287   6.396  1.7539 -0.0025 -3.9756
  155PVA    C3526294   6.676   4.079   6.436 -1.2677  0.5264  0.8632
  155PVA    H6926295   6.764   4.041   6.488  1.5280  6.1802  0.9873
  155PVA    O1226296   6.667   4.039   6.305 -0.7333 -1.2838  0.2807
  155PVA    H7026297   6.729   3.964   6.294  1.4908  0.2016  1.8921
  155PVA    C3626298   6.554   4.043   6.519  0.2327  0.1685 -0.1345
  155PVA    H7126299   6.571   4.086   6.619 -1.2761  1.5013 -0.4147
  155PVA    H7226300   6.469   4.093   6.469  0.6959 -1.0511 -2.2674
  155PVA    C3726301   6.513   3.895   6.547 -0.4178 -0.5953 -0.2701
  155PVA    H7326302   6.570   3.837   6.620  0.4580 -1.2073 -1.4028
  155PVA    H7426303   6.529   3.837   6.455  0.5448 -0.6372 -0.0796
  155PVA    C3826304   6.370   3.877   6.612 -0.1812  0.7433  0.9826
  155PVA    H7526305   6.353   3.949   6.694 -2.7497 -0.2407  1.4009
  155PVA    O1326306   6.258   3.899   6.525 -0.2469 -0.1350 -0.3259
  155PVA    H7626307   6.188   3.836   6.549 -1.4540  0.2517 -2.6233
  155PVA    C3926308   6.349   3.743   6.683  1.1024  1.3899 -0.0722
  155PVA    H7726309   6.428   3.722   6.757  1.5316 -0.0800 -0.8983
  155PVA    H7826310   6.336   3.667   6.606 -2.7091  2.2305 -0.4600
  155PVA    C4026311   6.223   3.754   6.778 -0.4337  0.0385  1.5210
  155PVA    H7926312   6.224   3.824   6.863 -1.2859 -1.0985  2.4933
  155PVA    H8026313   6.131   3.771   6.721 -0.6059  0.3833  1.8936
  155PVA    C4126314   6.183   3.613   6.849 -0.5184  0.3716 -0.4359
  155PVA    H8126315   6.097   3.578   6.791  0.3768  1.7633 -2.8065
  155PVA    O1426316   6.298   3.525   6.850 -0.0265  0.5540  0.1951
  155PVA    H8226317   6.293   3.443   6.903  0.2767 -0.2062 -0.9079
  155PVA    C4226318   6.139   3.630   6.995 -0.0051  0.0191 -0.1011
  155PVA    H8326319   6.227   3.669   7.048 -1.6197  1.6010  1.5775
  155PVA    H8426320   6.059   3.704   6.987  0.4814  0.3608 -2.5529
  155PVA    C4326321   6.106   3.497   7.061  1.1186  0.5128 -0.9299
  155PVA    H8526322   6.187   3.429   7.088 -1.3509 -2.0720  0.5487
  155PVA    H8626323   6.045   3.442   6.988  1.5311 -2.6352  0.9210
  155PVA    C4426324   6.016   3.491   7.192 -0.4115  0.2719  0.3773
  155PVA    H8726325   6.075   3.544   7.268 -0.3155  0.3613  0.2398
  155PVA    O1526326   5.900   3.564   7.177  0.0098 -0.8167 -0.0120
  155PVA    H8826327   5.846   3.538   7.100 -1.8303  3.1142 -0.3164
  155PVA    C4526328   5.993   3.339   7.220  2.2496  0.3628  0.1006
  155PVA    H8926329   6.085   3.279   7.221 -0.4633 -4.3031 -1.5533
  155PVA    H9026330   5.936   3.305   7.134 -2.1168  1.0825  2.4195
  155PVA    C4626331   5.923   3.307   7.356 -0.2558 -1.1371  1.4842
  155PVA    H9126332   6.000   3.329   7.431  3.3981 -2.5147 -1.5331
  155PVA    H9226333   5.839   3.370   7.386  0.1496 -0.2460  0.7694
  155PVA    C4726334   5.889   3.149   7.372 -0.7662 -0.2664 -0.3504
  155PVA    H9326335   5.953   3.091   7.304 -1.7216 -0.5654 -1.0114
  155PVA    O1626336   5.930   3.099   7.503  0.1407 -0.3220 -0.7766
  155PVA    H9426337   5.868   3.139   7.567  1.6740  2.4566 -0.8698
  155PVA    C4826338   5.742   3.106   7.360  0.7525  1.2575 -0.8226
  155PVA    H9526339   5.690   3.109   7.457 -0.0390 -1.1937 -1.0960
  155PVA    H9626340   5.680   3.174   7.301 -2.7746 -0.2250  0.8798
  155PVA    C4926341   5.725   2.954   7.321 -0.6452 -0.4312  0.7548
  155PVA    H9726342   5.779   2.886   7.388  0.9999  0.4453  0.3720
  155PVA    H9826343   5.790   2.940   7.233  0.0163 -0.7341  1.2808
  155PVA    C5026344   5.582   2.901   7.285  0.4472  0.7487 -0.2107
  155PVA    H9926345   5.564   2.942   7.184  0.8559 -1.4339 -1.2217
  155PVA    O1726346   5.488   2.954   7.378  0.6126  0.8093  0.0701
  155PVA   H10026347   5.514   2.909   7.460 -1.5239  0.6006  0.6836
  155PVA    C5126348   5.571   2.745   7.288 -0.0047 -0.0615  0.6000
  155PVA   H10126349   5.595   2.728   7.394 -2.8624 -4.3772  0.8088
  155PVA   H10226350   5.646   2.692   7.228 -0.9427  2.0931 -2.7009
  156PVA     C126351   2.084   4.310   6.284  0.1489  0.1547  0.1749
  156PVA     H126352   2.044   4.391   6.345 -4.8892 -2.1682  0.4449
  156PVA     H226353   2.191   4.296   6.304  0.6259  1.5209 -1.2030
  156PVA     C226354   2.079   4.338   6.134 -0.2844  0.2397  0.2360
  156PVA     H326355   2.154   4.277   6.082  0.4806 -0.3084  1.9300
  156PVA     O126356   1.965   4.275   6.075 -0.0386  0.9101  0.3221
  156PVA     H426357   1.907   4.337   6.028 -0.3095 -0.2050 -0.8829
  156PVA     C326358   2.098   4.491   6.094 -0.0344  0.4552  0.0719
  156PVA     H526359   2.027   4.553   6.149 -2.0981 -1.6323 -0.0687
  156PVA     H626360   2.196   4.506   6.141  0.1933 -0.3718 -0.1257
  156PVA     C426361   2.096   4.514   5.939  0.0587 -0.8588  0.4992
  156PVA     H726362   2.143   4.419   5.910 -0.8020 -1.1367 -0.0125
  156PVA     H826363   1.997   4.521   5.891  1.4904  1.4424 -2.4052
  156PVA     C526364   2.200   4.631   5.910  1.0909 -0.5329 -0.4992
  156PVA     H926365   2.269   4.627   5.995  1.0917  4.1375 -0.0111
  156PVA     O226366   2.119   4.752   5.934 -1.1609 -0.0175 -0.1166
  156PVA    H1026367   2.032   4.736   5.974 -1.7462  1.3950 -0.7611
  156PVA     C626368   2.259   4.663   5.776 -1.0417  1.1821  1.0329
  156PVA    H1126369   2.287   4.564   5.738 -0.5238  1.8030 -0.2891
  156PVA    H1226370   2.188   4.696   5.699  5.0054  1.3448 -5.4653
  156PVA     C726371   2.386   4.752   5.778  0.1797 -0.2508 -0.0208
  156PVA    H1326372   2.446   4.728   5.866  0.0659 -1.8198 -0.3413
  156PVA    H1426373   2.331   4.846   5.786  0.4811 -0.2574  5.0029
  156PVA     C826374   2.482   4.771   5.655  0.3591  0.3738 -0.4713
  156PVA    H1526375   2.546   4.682   5.649  1.1177  0.5499  2.7619
  156PVA     O326376   2.413   4.792   5.538  0.6381  0.4136  0.2443
  156PVA    H1626377   2.373   4.718   5.488 -1.8471  3.7357 -3.3283
  156PVA     C926378   2.590   4.877   5.656 -0.2335  0.2937  0.4304
  156PVA    H1726379   2.650   4.869   5.747  1.5379  1.2727 -0.5976
  156PVA    H1826380   2.554   4.980   5.666  3.0742  1.4256  1.6786
  156PVA    C1026381   2.680   4.873   5.532  1.4267 -0.6687  0.5301
  156PVA    H1926382   2.687   4.787   5.465 -0.4955 -0.8491  0.5174
  156PVA    H2026383   2.608   4.939   5.482  1.3548 -0.3668  1.0158
  156PVA    C1126384   2.815   4.942   5.549 -0.8883  0.3055  0.1919
  156PVA    H2126385   2.794   5.045   5.582 -2.9663  0.5915 -1.8490
  156PVA     O426386   2.879   4.874   5.657  0.4466  0.5746  0.9791
  156PVA    H2226387   2.867   4.941   5.726 -0.6423  2.9509 -1.3566
  156PVA    C1226388   2.912   4.956   5.425 -0.6416 -0.0152 -0.0187
  156PVA    H2326389   2.898   4.863   5.369  0.6598  0.5743 -1.3907
  156PVA    H2426390   2.856   5.032   5.368 -0.2269 -1.7773 -2.9721
  156PVA    C1326391   3.059   4.998   5.437 -0.3716 -0.2472 -1.1894
  156PVA    H2526392   3.079   5.087   5.499 -0.6750 -0.0359 -1.3903
  156PVA    H2626393   3.114   4.923   5.496 -1.8849  0.4754  1.3009
  156PVA    C1426394   3.138   4.991   5.300 -1.5864 -0.6032 -0.4318
  156PVA    H2726395   3.088   5.054   5.226  0.0935  1.4704  0.1066
  156PVA     O526396   3.155   4.859   5.257 -0.2155 -0.2202  0.5794
  156PVA    H2826397   3.136   4.858   5.162  0.6500 -0.6411  0.4023
  156PVA    C1526398   3.290   5.049   5.316  0.7361  0.7597 -0.1359
  156PVA    H2926399   3.259   5.150   5.346 -1.1838  0.3402 -0.5889
  156PVA    H3026400   3.356   4.999   5.388 -0.1879 -4.8067 -2.6767
  156PVA    C1626401   3.367   5.041   5.191  1.0632  1.2756  0.3448
  156PVA    H3126402   3.378   4.940   5.149  3.1533  3.1347 -4.2519
  156PVA    H3226403   3.309   5.101   5.119 -2.3483  0.1213  1.9001
  156PVA    C1726404   3.508   5.104   5.210 -1.1018  0.7694 -0.1502
  156PVA    H3326405   3.527   5.135   5.314 -1.3832 -4.2125  1.6684
  156PVA     O626406   3.534   5.199   5.108 -0.2534  0.1614 -0.4168
  156PVA    H3426407   3.613   5.239   5.149 -2.0894 -0.5754  4.4720
  156PVA    C1826408   3.629   5.011   5.195 -0.0764 -0.0185 -0.2723
  156PVA    H3526409   3.716   5.060   5.240  1.3504 -0.6694 -2.2150
  156PVA    H3626410   3.621   4.926   5.264  4.2532 -0.8579 -0.5518
  156PVA    C1926411   3.649   4.957   5.046 -0.7053 -0.2718  0.1123
  156PVA    H3726412   3.670   5.043   4.981  2.5115 -0.9041  0.1620
  156PVA    H3826413   3.558   4.906   5.010 -0.0419  0.6569 -3.2729
  156PVA    C2026414   3.769   4.844   5.027  0.6352 -0.9066 -0.1878
  156PVA    H3926415   3.828   4.873   4.939 -0.1415  0.4392 -0.2853
  156PVA     O726416   3.856   4.835   5.133 -0.7792 -0.2151  0.0093
  156PVA    H4026417   3.817   4.817   5.221 -1.0760  1.2500  0.1989
  156PVA    C2126418   3.732   4.707   4.989 -0.0139  0.3664 -0.7771
  156PVA    H4126419   3.681   4.692   4.893  1.1434 -1.8197 -1.1264
  156PVA    H4226420   3.659   4.681   5.066 -0.8551 -0.5885 -1.8514
  156PVA    C2226421   3.852   4.604   5.017 -1.2708 -0.0951  0.3765
  156PVA    H4326422   3.954   4.632   4.984 -1.2044  1.6998  1.9118
  156PVA    H4426423   3.867   4.595   5.125  2.3579 -5.7722 -0.2073
  156PVA    C2326424   3.826   4.461   4.959 -0.1744 -0.8831 -0.7358
  156PVA    H4526425   3.778   4.464   4.861 -1.8548 -1.6709  0.0190
  156PVA     O826426   3.744   4.401   5.050  0.2591  0.0883 -0.3641
  156PVA    H4626427   3.689   4.345   4.993 -0.6227 -0.1158  0.6531
  156PVA    C2426428   3.950   4.377   4.942  0.3245 -0.4220  0.3139
  156PVA    H4726429   4.000   4.358   5.038 -2.4867  0.2614  2.0630
  156PVA    H4826430   4.020   4.431   4.878 -3.4792  0.3691 -3.6326
  156PVA    C2526431   3.930   4.232   4.886 -0.1725 -0.4736  0.7720
  156PVA    H4926432   3.897   4.242   4.782 -2.3186  1.2962  1.5372
  156PVA    H5026433   3.849   4.180   4.939 -1.0761 -2.0573 -1.9539
  156PVA    C2626434   4.063   4.155   4.902  0.1783  0.2243  0.3182
  156PVA    H5126435   4.099   4.179   5.002 -3.3096  0.3113  1.7028
  156PVA     O926436   4.172   4.211   4.820  0.0345 -0.6551 -0.1226
  156PVA    H5226437   4.193   4.302   4.846 -1.8898  0.1982 -1.3991
  156PVA    C2726438   4.077   3.999   4.888 -0.3182 -0.0320 -0.5931
  156PVA    H5326439   4.073   3.970   4.783 -4.5154 -2.9440  0.1370
  156PVA    H5426440   4.005   3.943   4.948  3.3841 -3.6618  0.9134
  156PVA    C2826441   4.207   3.938   4.946 -0.4491  0.1410 -0.3867
  156PVA    H5526442   4.292   3.977   4.888  0.5756  2.1292  2.2650
  156PVA    H5626443   4.215   3.979   5.047 -2.8231 -3.7202  1.6267
  156PVA    C2926444   4.219   3.779   4.934 -0.2607  0.5670  1.4107
  156PVA    H5726445   4.246   3.775   4.828 -0.4508 -1.2949  1.3981
  156PVA    O1026446   4.094   3.724   4.925  1.5076 -0.0268 -0.2760
  156PVA    H5826447   4.024   3.769   4.874  1.8157 -2.1314 -2.7369
  156PVA    C3026448   4.318   3.709   5.014 -0.0444  0.1823 -0.6906
  156PVA    H5926449   4.351   3.620   4.960 -2.4654 -3.5093  3.2574
  156PVA    H6026450   4.411   3.767   5.013 -0.3373  0.6706 -0.2917
  156PVA    C3126451   4.289   3.659   5.160 -0.1574 -0.4536  0.4459
  156PVA    H6126452   4.194   3.604   5.160  1.1761 -2.9019  0.0548
  156PVA    H6226453   4.248   3.747   5.211 -0.1028 -0.8369  1.1627
  156PVA    C3226454   4.411   3.593   5.233 -0.1603 -0.3223 -0.2355
  156PVA    H6326455   4.502   3.619   5.178 -0.9444 -0.4012 -1.6463
  156PVA    O1126456   4.415   3.446   5.232 -0.9392  1.3143  0.3328
  156PVA    H6426457   4.349   3.410   5.170 -1.2349 -2.1893  2.4236
  156PVA    C3326458   4.424   3.640   5.381 -1.2359 -0.0862  0.0020
  156PVA    H6526459   4.336   3.602   5.434 -0.7255  0.5063  1.3339
  156PVA    H6626460   4.416   3.749   5.385 -4.6225 -0.0147 -3.2943
  156PVA    C3426461   4.557   3.597   5.449  0.1655 -0.1517 -0.3508
  156PVA    H6726462   4.554   3.487   5.449  0.4509 -0.1772 -1.3910
  156PVA    H6826463   4.636   3.644   5.389  2.5942 -3.7894 -0.3301
  156PVA    C3526464   4.559   3.654   5.591 -0.5701  1.0303  0.7233
  156PVA    H6926465   4.584   3.761   5.587 -0.6402  1.0374  0.4775
  156PVA    O1226466   4.438   3.629   5.655 -0.8754  1.2498  0.4008
  156PVA    H7026467   4.373   3.616   5.583  1.0342  1.0729 -1.3898
  156PVA    C3626468   4.682   3.592   5.672  0.4474 -0.0413  1.0741
  156PVA    H7126469   4.761   3.659   5.637 -2.2629  2.0669 -1.5298
  156PVA    H7226470   4.716   3.495   5.633 -2.6596 -1.0990  0.6581
  156PVA    C3726471   4.682   3.583   5.824 -0.5687 -0.3683  0.4078
  156PVA    H7326472   4.784   3.593   5.864 -0.5981  1.1060  0.1778
  156PVA    H7426473   4.631   3.673   5.862  3.7924  2.2197  0.8544
  156PVA    C3826474   4.643   3.460   5.903 -0.4765 -0.3257  0.6075
  156PVA    H7526475   4.716   3.379   5.892  4.4524  3.7704 -0.3663
  156PVA    O1326476   4.522   3.426   5.857 -0.3917  0.3001 -0.1821
  156PVA    H7626477   4.518   3.465   5.768 -0.5500 -1.8221 -1.1646
  156PVA    C3926478   4.633   3.496   6.056  0.5550  0.3895  0.0692
  156PVA    H7726479   4.737   3.495   6.093  0.6090 -2.5270  0.0690
  156PVA    H7826480   4.607   3.602   6.061  4.8201  1.7416 -1.7073
  156PVA    C4026481   4.559   3.381   6.135 -0.0850 -0.2974 -0.8443
  156PVA    H7926482   4.588   3.277   6.111 -1.7857 -0.9016 -0.3808
  156PVA    H8026483   4.455   3.372   6.102  0.4676 -2.2188 -2.2408
  156PVA    C4126484   4.582   3.389   6.290 -0.4386  0.3908  0.2196
  156PVA    H8126485   4.688   3.382   6.316 -0.2119 -0.5087 -0.8375
  156PVA    O1426486   4.540   3.508   6.340  0.4169  0.5100 -0.7643
  156PVA    H8226487   4.460   3.533   6.292 -0.5572 -1.7506 -0.4226
  156PVA    C4226488   4.504   3.275   6.360 -0.2631  1.2153 -0.8680
  156PVA    H8326489   4.402   3.282   6.322 -0.6522  1.8248  0.2478
  156PVA    H8426490   4.547   3.178   6.333  1.3095  1.4753  0.5227
  156PVA    C4326491   4.510   3.276   6.519  0.2636 -0.5992 -0.2133
  156PVA    H8526492   4.594   3.329   6.564  0.9749 -0.9540 -1.0931
  156PVA    H8626493   4.428   3.340   6.554  2.8235  1.8865  1.7066
  156PVA    C4426494   4.507   3.145   6.603  0.3903  1.1308 -0.4755
  156PVA    H8726495   4.418   3.169   6.663 -0.1569 -0.5786 -0.5464
  156PVA    O1526496   4.488   3.040   6.519  0.5509  1.3554  1.0570
  156PVA    H8826497   4.429   2.980   6.567 -0.9423  2.8204  1.1420
  156PVA    C4526498   4.640   3.125   6.682 -0.0424  0.2934  0.3777
  156PVA    H8926499   4.667   3.221   6.727 -0.5864  1.1561 -1.0370
  156PVA    H9026500   4.714   3.125   6.601 -0.8574 -0.5347 -0.3981
  156PVA    C4626501   4.661   2.980   6.751  0.7072 -1.6180 -0.0053
  156PVA    H9126502   4.628   2.986   6.855  0.5706  1.5543 -0.1336
  156PVA    H9226503   4.607   2.899   6.699 -4.6469  0.4782  1.6051
  156PVA    C4726504   4.812   2.928   6.760  0.3865 -0.3864 -0.3034
  156PVA    H9326505   4.833   2.894   6.658  2.0440 -2.6380  0.7081
  156PVA    O1626506   4.898   3.043   6.784  0.4903  0.2691 -0.6851
  156PVA    H9426507   4.871   3.060   6.876  0.6769 -2.3072 -0.0532
  156PVA    C4826508   4.855   2.808   6.841 -0.1621  0.5809  0.2979
  156PVA    H9526509   4.803   2.809   6.937 -0.6448 -0.5015  0.0687
  156PVA    H9626510   4.803   2.719   6.802 -0.4263  1.4439 -1.4345
  156PVA    C4926511   5.007   2.787   6.863 -0.6635  0.4809  0.0129
  156PVA    H9726512   5.044   2.887   6.888 -3.6155  2.5816 -3.1368
  156PVA    H9826513   5.056   2.757   6.769  1.8405 -0.4935  1.5284
  156PVA    C5026514   5.023   2.661   6.951  1.1165 -0.7464 -0.2135
  156PVA    H9926515   4.975   2.678   7.048 -2.1770  4.7696 -2.3396
  156PVA    O1726516   4.964   2.557   6.872 -0.3774  0.1165 -0.7248
  156PVA   H10026517   5.036   2.527   6.814  1.1816 -2.0447  2.0121
  156PVA    C5126518   5.169   2.628   6.957  0.0803  0.0549  0.0636
  156PVA   H10126519   5.229   2.692   6.892  1.0334 -1.1507 -0.2969
  156PVA   H10226520   5.185   2.523   6.929 -1.0637  0.2524 -1.4817
  157PVA     C126521   1.656   4.140   6.516  0.1920  0.3158  1.1745
  157PVA     H126522   1.646   4.129   6.624 -0.6315  0.0821  1.0840
  157PVA     H226523   1.645   4.246   6.492  3.8027  0.7576  0.8375
  157PVA     C226524   1.542   4.066   6.447 -0.3413 -0.5882 -0.0818
  157PVA     H326525   1.569   4.057   6.341 -1.9700  1.7041 -0.7784
  157PVA     O126526   1.551   3.939   6.496  0.4174  0.6459  1.1609
  157PVA     H426527   1.570   3.884   6.418 -0.3441  1.2728  0.5091
  157PVA     C326528   1.397   4.128   6.449 -0.3663  0.1182 -0.3268
  157PVA     H526529   1.379   4.166   6.550 -4.6195 -0.3935 -0.7112
  157PVA     H626530   1.328   4.048   6.419 -0.0760  0.4747 -2.0291
  157PVA     C426531   1.375   4.255   6.362  0.0939 -0.7434 -0.2323
  157PVA     H726532   1.415   4.349   6.403  0.0187 -0.4771 -0.7573
  157PVA     H826533   1.427   4.243   6.266  1.1516 -2.3515  0.5102
  157PVA     C526534   1.229   4.290   6.328  0.0316  0.2054 -0.4137
  157PVA     H926535   1.188   4.242   6.238 -1.1803 -1.3571  0.9055
  157PVA     O226536   1.142   4.261   6.446  0.3014  0.4433 -0.2685
  157PVA    H1026537   1.053   4.293   6.425 -0.7750 -3.0109 -1.7023
  157PVA     C626538   1.222   4.436   6.272 -1.4958 -0.1766 -0.0492
  157PVA    H1126539   1.285   4.451   6.184  0.4041 -0.1390  1.2524
  157PVA    H1226540   1.268   4.506   6.343 -2.2935  1.1604 -0.8117
  157PVA     C726541   1.083   4.501   6.255  0.9915  1.6713 -0.4478
  157PVA    H1326542   1.027   4.417   6.211  3.3049  0.0505 -0.5042
  157PVA    H1426543   1.085   4.579   6.178  6.0858 -3.0459 -6.1224
  157PVA     C826544   1.017   4.552   6.382 -0.3016 -0.4286 -0.5734
  157PVA    H1526545   1.036   4.477   6.459  0.5069 -1.0677 -1.3736
  157PVA     O326546   1.086   4.670   6.425 -0.5255 -0.3777 -0.1333
  157PVA    H1626547   1.171   4.655   6.468 -0.6238 -0.2419  0.1109
  157PVA     C926548   0.867   4.578   6.355 -0.7831  0.0428  0.1915
  157PVA    H1726549   0.842   4.532   6.258  0.0908  1.8016 -0.9198
  157PVA    H1826550   0.832   4.681   6.340  2.0806  1.1513  0.5707
  157PVA    C1026551   0.772   4.503   6.458  0.9515  0.6024  0.4333
  157PVA    H1926552   0.828   4.412   6.480  0.8555 -0.8662 -4.2983
  157PVA    H2026553   0.676   4.466   6.421 -1.6932  1.9268  5.1588
  157PVA    C1126554   0.742   4.575   6.590  0.6625  0.2543  1.1084
  157PVA    H2126555   0.691   4.498   6.649 -0.6261  1.8592  2.1427
  157PVA     O426556   0.865   4.611   6.651  0.2383 -0.6582 -0.3988
  157PVA    H2226557   0.915   4.655   6.580 -4.3441  2.5752 -2.0615
  157PVA    C1226558   0.652   4.695   6.580 -0.5293 -0.2572 -0.9061
  157PVA    H2326559   0.668   4.747   6.485 -1.9448  2.2111  0.1096
  157PVA    H2426560   0.690   4.770   6.650 -0.8372 -0.3873 -0.5927
  157PVA    C1326561   0.491   4.661   6.590 -0.2981 -1.0388 -1.6132
  157PVA    H2526562   0.476   4.592   6.673 -0.2972 -0.3256 -1.0065
  157PVA    H2626563   0.477   4.598   6.501 -0.5655 -2.7322 -0.4015
  157PVA    C1426564   0.399   4.780   6.625  0.2823  0.5544  0.0543
  157PVA    H2726565   0.328   4.737   6.697  0.3296 -1.4978 -1.0652
  157PVA     O526566   0.462   4.894   6.694 -0.3296 -0.6219  0.5167
  157PVA    H2826567   0.480   4.863   6.785 -0.3022  1.2828  1.2213
  157PVA    C1526568   0.307   4.833   6.505  0.0391  0.5728 -0.8493
  157PVA    H2926569   0.367   4.889   6.432  0.1316 -2.1777 -3.0748
  157PVA    H3026570   0.213   4.887   6.523 -1.6011 -2.7148  1.3404
  157PVA    C1626571   0.248   4.708   6.422 -1.2993 -1.0880 -0.5790
  157PVA    H3126572   0.234   4.618   6.484  2.9487 -3.5160 -2.7032
  157PVA    H3226573   0.321   4.662   6.354 -2.5042 -1.9168 -1.3666
  157PVA    C1726574   0.111   4.730   6.363 -0.8741  1.1705  0.9256
  157PVA    H3326575   0.042   4.753   6.445 -3.5704  3.9473 -1.8584
  157PVA     O626576   0.091   4.599   6.311 -0.7997 -1.3210  0.5528
  157PVA    H3426577   0.129   4.601   6.222  1.2936 -2.1216  1.3481
  157PVA    C1826578   0.098   4.829   6.251 -0.0230 -0.1910 -0.7505
  157PVA    H3526579   0.198   4.833   6.205  0.1063  0.7760 -0.3969
  157PVA    H3626580   0.028   4.789   6.177 -1.3009  0.3805  0.1238
  157PVA    C1926581   0.062   4.977   6.264  0.0756  0.2294 -1.2200
  157PVA    H3726582   0.148   5.007   6.326  3.3626 -5.8461 -1.9943
  157PVA    H3826583   7.732   4.990   6.316  0.0443 -1.9534 -0.6226
  157PVA    C2026584   0.062   5.068   6.136 -0.3326  0.4801 -0.7904
  157PVA    H3926585   7.752   5.139   6.172 -0.4145  0.5278 -1.0508
  157PVA     O726586   0.025   5.005   6.012  0.3261 -0.8396 -0.0227
  157PVA    H4026587   7.693   4.998   6.016  0.1160  1.1421 -0.7276
  157PVA    C2126588   0.204   5.125   6.111  0.2576  0.4029  0.8603
  157PVA    H4126589   0.275   5.041   6.106 -1.5185 -1.1316 -0.4909
  157PVA    H4226590   0.213   5.197   6.193 -0.6786 -0.7148  1.9847
  157PVA    C2226591   0.230   5.205   5.977  0.2839  0.0682 -1.1082
  157PVA    H4326592   0.178   5.302   5.979 -0.2830 -0.2312  0.6900
  157PVA    H4426593   0.197   5.152   5.886  0.9253 -0.4623 -1.0337
  157PVA    C2326594   0.377   5.243   5.953 -0.7665 -0.0999 -0.3666
  157PVA    H4526595   0.371   5.315   5.870 -0.7355 -0.4555 -0.6813
  157PVA     O826596   0.431   5.316   6.065  0.2086  0.2686 -0.2103
  157PVA    H4626597   0.399   5.408   6.070  0.6296  0.3609  1.0879
  157PVA    C2426598   0.465   5.118   5.916  0.1287 -0.1094  1.1687
  157PVA    H4726599   0.495   5.060   6.003  2.6019 -0.3360  0.2468
  157PVA    H4826600   0.399   5.040   5.875 -2.4778  1.5036  1.9939
  157PVA    C2526601   0.597   5.155   5.864  0.6414 -1.2537 -0.9316
  157PVA    H4926602   0.650   5.211   5.942  2.6974 -3.1727 -0.8644
  157PVA    H5026603   0.578   5.221   5.778 -3.3839 -1.6682 -0.5622
  157PVA    C2626604   0.684   5.031   5.818 -0.2378 -0.5329 -0.3695
  157PVA    H5126605   0.625   4.950   5.773 -4.6160  0.3019  3.1700
  157PVA     O926606   0.730   4.974   5.936 -0.7402 -0.2826 -0.9395
  157PVA    H5226607   0.823   4.954   5.918 -0.7579  0.4223 -1.9344
  157PVA    C2726608   0.800   5.076   5.720 -0.4819 -0.5362  0.2763
  157PVA    H5326609   0.858   5.162   5.757  2.5475 -2.5181  0.5395
  157PVA    H5426610   0.726   5.093   5.641 -1.6658 -0.8381  1.2863
  157PVA    C2826611   0.881   4.946   5.673  0.0981 -0.2579  1.0287
  157PVA    H5526612   0.804   4.869   5.670  0.7469 -1.1650  4.2307
  157PVA    H5626613   0.948   4.899   5.746  1.6592 -1.5158 -1.1086
  157PVA    C2926614   0.961   4.967   5.538  0.3770  0.6690 -0.4066
  157PVA    H5726615   0.907   5.025   5.463 -0.3433 -1.6588 -1.8185
  157PVA    O1026616   0.986   4.837   5.478  0.3179  0.1333  0.0090
  157PVA    H5826617   1.053   4.848   5.408 -2.2460  1.6880 -2.3686
  157PVA    C3026618   1.084   5.061   5.550  0.4509  0.0826  0.4403
  157PVA    H5926619   1.066   5.149   5.613 -3.6771 -0.3486  0.1687
  157PVA    H6026620   1.155   5.005   5.612 -1.9976 -4.9763 -0.7416
  157PVA    C3126621   1.159   5.110   5.421  0.1217 -0.6497 -0.1075
  157PVA    H6126622   1.233   5.189   5.438 -4.0117  3.4990  0.4981
  157PVA    H6226623   1.085   5.168   5.365 -1.1816  0.8447  2.9462
  157PVA    C3226624   1.206   5.000   5.332  1.0493  0.4612  0.1325
  157PVA    H6326625   1.225   4.915   5.398  1.4777 -1.1684 -1.9556
  157PVA    O1126626   1.090   4.957   5.247 -1.8620  0.7412  0.4364
  157PVA    H6426627   1.132   4.892   5.188  0.6747  2.0388  0.6704
  157PVA    C3326628   1.325   5.034   5.239 -1.3405  0.2046 -0.1602
  157PVA    H6526629   1.299   5.126   5.184 -0.0402  2.0673  2.1495
  157PVA    H6626630   1.359   4.955   5.172  0.3072 -2.1879  3.1888
  157PVA    C3426631   1.452   5.099   5.303  0.0404 -0.4621  0.1544
  157PVA    H6726632   1.424   5.205   5.314 -3.8452 -1.5365  3.1786
  157PVA    H6826633   1.455   5.076   5.411 -1.6276  2.2184  0.8740
  157PVA    C3526634   1.590   5.077   5.227 -0.9222  0.2587 -0.3434
  157PVA    H6926635   1.618   4.973   5.244 -1.4887  0.7463  5.5928
  157PVA    O1226636   1.578   5.104   5.098  0.7902 -0.0414  1.4080
  157PVA    H7026637   1.666   5.131   5.067 -0.2776 -0.9395 -3.2568
  157PVA    C3626638   1.710   5.163   5.271  0.0958 -0.7149  1.1001
  157PVA    H7126639   1.698   5.267   5.238  3.0293 -0.6241 -0.0153
  157PVA    H7226640   1.729   5.178   5.378  1.5446  3.1699  0.4739
  157PVA    C3726641   1.848   5.120   5.191 -0.5791  0.1365 -0.2749
  157PVA    H7326642   1.840   5.119   5.081  2.3630  3.4017 -0.7124
  157PVA    H7426643   1.869   5.017   5.220  4.1507  0.8055 -0.4976
  157PVA    C3826644   1.972   5.208   5.228  0.3277  0.9903  0.3664
  157PVA    H7526645   2.057   5.160   5.177  0.7296  0.0932  1.8332
  157PVA    O1326646   1.926   5.338   5.192  0.2306 -0.4226 -0.7243
  157PVA    H7626647   1.962   5.400   5.258 -1.0882 -0.8717  0.4604
  157PVA    C3926648   2.007   5.211   5.373 -0.1897  0.5977  0.5376
  157PVA    H7726649   1.923   5.202   5.444  3.6698 -2.0253  5.4559
  157PVA    H7826650   2.052   5.308   5.397  1.4075 -0.2686  1.2219
  157PVA    C4026651   2.108   5.101   5.416  0.5292  1.2447  0.1307
  157PVA    H7926652   2.067   5.008   5.373  1.2863  0.5825  0.8075
  157PVA    H8026653   2.201   5.116   5.359 -1.4092 -0.8693 -4.0508
  157PVA    C4126654   2.129   5.096   5.569 -0.3401  0.7480 -1.4638
  157PVA    H8126655   2.096   5.191   5.614 -2.4649 -0.3500 -0.5748
  157PVA    O1426656   2.266   5.088   5.602 -0.9571  0.2934 -0.3072
  157PVA    H8226657   2.285   4.993   5.587 -0.9136  0.2161  0.2279
  157PVA    C4226658   2.054   4.972   5.637  0.9644 -0.4959 -0.4031
  157PVA    H8326659   2.063   4.874   5.589  2.1997  0.4324 -2.1890
  157PVA    H8426660   2.100   4.951   5.734 -0.7582  2.0757  1.0957
  157PVA    C4326661   1.904   5.015   5.659  0.6122  0.9351 -0.5032
  157PVA    H8526662   1.896   5.124   5.670 -1.5848  0.9122 -1.2815
  157PVA    H8626663   1.852   4.990   5.566 -1.4901 -0.3143  0.9302
  157PVA    C4426664   1.832   4.924   5.767 -0.3931  0.4483  0.4602
  157PVA    H8726665   1.895   4.930   5.857 -1.1956  0.9361  1.0010
  157PVA    O1526666   1.799   4.796   5.712 -0.6618  0.3872 -0.4042
  157PVA    H8826667   1.711   4.816   5.675  0.1724  0.9445 -2.2085
  157PVA    C4526668   1.697   4.983   5.794  0.2691 -0.3354 -0.8248
  157PVA    H8926669   1.624   4.905   5.818 -0.0345 -0.0462 -0.8052
  157PVA    H9026670   1.696   5.044   5.885  1.4941 -3.1511  1.2121
  157PVA    C4626671   1.628   5.057   5.672  0.3440 -0.1437  0.8434
  157PVA    H9126672   1.694   5.142   5.650  3.0650 -2.4992 -0.8317
  157PVA    H9226673   1.644   4.995   5.583  0.1743  1.1636 -0.1236
  157PVA    C4726674   1.479   5.098   5.690  0.5892 -1.2223  0.0560
  157PVA    H9326675   1.437   5.174   5.623  0.8707 -2.1162 -1.1639
  157PVA    O1626676   1.396   4.996   5.674 -0.4539  0.1944  0.4618
  157PVA    H9426677   1.350   5.000   5.760 -2.5651  0.6425 -0.5979
  157PVA    C4826678   1.444   5.138   5.835 -1.2279  0.2333 -0.1484
  157PVA    H9526679   1.503   5.223   5.872 -0.2346  0.5197 -2.2616
  157PVA    H9626680   1.469   5.055   5.903  0.0927 -1.4923 -2.6136
  157PVA    C4926681   1.305   5.186   5.864 -0.7476  0.6519 -0.9084
  157PVA    H9726682   1.251   5.228   5.777  1.4542 -0.4336 -2.9024
  157PVA    H9826683   1.332   5.270   5.929  3.9037 -0.7403 -0.6984
  157PVA    C5026684   1.214   5.084   5.945  0.7498  1.6166  0.6916
  157PVA    H9926685   1.276   5.071   6.034  0.4673  2.3256  1.0029
  157PVA    O1726686   1.211   4.953   5.879  0.4143 -0.1586  0.0178
  157PVA   H10026687   1.202   4.888   5.951 -0.8407  1.6460  1.6088
  157PVA    C5126688   1.075   5.144   5.989  0.5138  0.0705  0.2706
  157PVA   H10126689   0.997   5.070   6.006  2.2191 -2.2725 -1.4724
  157PVA   H10226690   1.052   5.220   5.912 -1.4414  1.1664  1.8530
  158PVA     C126691   4.891   2.438   8.006  0.3488 -0.3241 -1.5408
  158PVA     H126692   4.889   2.545   8.031  1.1453 -0.6179 -0.1050
  158PVA     H226693   4.859   2.383   8.095 -0.2183 -0.7725 -2.0100
  158PVA     C226694   4.755   2.426   7.923 -0.4197 -0.6192 -0.2967
  158PVA     H326695   4.740   2.322   7.891  0.9983 -2.3251  3.9364
  158PVA     O126696   4.764   2.508   7.808  0.9953 -0.1397  0.0862
  158PVA     H426697   4.845   2.485   7.759  2.5877  2.7524  1.1686
  158PVA     C326698   4.620   2.479   7.993 -0.8383 -0.5298 -0.2478
  158PVA     H526699   4.632   2.581   8.032  0.7178 -1.3580  1.6454
  158PVA     H626700   4.622   2.413   8.081  1.9958 -1.0418 -0.5930
  158PVA     C426701   4.479   2.426   7.957  0.1839 -1.0728 -1.3587
  158PVA     H726702   4.448   2.474   7.864  2.6669 -1.2897 -2.3737
  158PVA     H826703   4.490   2.321   7.925  0.8680 -1.3419 -0.2947
  158PVA     C526704   4.360   2.437   8.066  0.1263 -0.3773 -0.5265
  158PVA     H926705   4.380   2.378   0.060 -0.7095  1.9069  1.2477
  158PVA     O226706   4.381   2.562   0.032 -0.4424 -0.0969  0.4274
  158PVA    H1026707   4.372   2.632   8.062  1.4745 -0.6518 -0.4867
  158PVA     C626708   4.208   2.451   8.028  0.0890  0.4453 -0.6152
  158PVA    H1126709   4.147   2.509   0.002 -0.3859  0.2874 -0.8883
  158PVA    H1226710   4.194   2.520   7.943 -1.3940 -0.4630 -1.1422
  158PVA     C726711   4.134   2.314   8.005 -0.7759 -0.4707 -0.4748
  158PVA    H1326712   4.191   2.268   7.924 -2.6295  2.6443 -3.8399
  158PVA    H1426713   4.146   2.243   8.088 -1.8079 -0.9059 -0.6751
  158PVA     C826714   3.991   2.325   7.959  0.8503  0.4228 -0.2747
  158PVA    H1526715   3.939   2.373   8.043 -2.3506  0.1347 -1.9325
  158PVA     O326716   3.976   2.411   7.849 -0.5392  1.1108 -1.1286
  158PVA    H1626717   4.036   2.486   7.866 -0.9350  0.5090  4.7226
  158PVA     C926718   3.928   2.178   7.933  1.1288 -0.1893 -0.9837
  158PVA    H1726719   3.936   2.102   8.013  0.6993 -1.6403 -2.2692
  158PVA    H1826720   3.957   2.136   7.836  3.7485  0.8794 -0.7663
  158PVA    C1026721   3.771   2.193   7.940 -1.1088 -0.2653 -0.4121
  158PVA    H1926722   3.744   2.266   7.863  0.6195  0.9540  0.0692
  158PVA    H2026723   3.753   2.231   8.042 -0.2714 -2.1090  0.4658
  158PVA    C1126724   3.673   2.077   7.937  0.0391 -0.2812  1.3268
  158PVA    H2126725   3.710   1.978   7.967  1.5197 -0.7341 -1.6903
  158PVA     O426726   3.649   2.051   7.792 -0.6301 -0.2546 -0.6320
  158PVA    H2226727   3.574   1.991   7.775 -0.2808 -0.3796 -1.8158
  158PVA    C1226728   3.536   2.083   8.014 -0.3860  0.9081 -0.3497
  158PVA    H2326729   3.529   1.994   8.078 -1.5625  2.6645  2.1200
  158PVA    H2426730   3.554   2.168   8.080  3.4832 -1.4117  1.9618
  158PVA    C1326731   3.399   2.056   7.951 -0.3618 -0.3840  0.1757
  158PVA    H2526732   3.409   1.962   7.895  2.5481 -0.1524  0.1737
  158PVA    H2626733   3.390   2.111   7.856 -0.1444  3.0367  1.9989
  158PVA    C1426734   3.257   2.058   8.023 -0.8475 -0.2920 -0.2958
  158PVA    H2726735   3.249   1.976   8.096  0.5356  0.1781  0.3997
  158PVA     O526736   3.149   2.057   7.931 -0.4194 -0.9550 -0.1753
  158PVA    H2826737   3.185   2.125   7.872 -3.1120  4.3847  3.5071
  158PVA    C1526738   3.225   2.153   0.039  0.4833 -0.2496  1.1030
  158PVA    H2926739   3.257   2.251   0.000 -1.0075 -0.2951 -0.4021
  158PVA    H3026740   3.302   2.141   0.115  1.5788  2.8546  0.6202
  158PVA    C1626741   3.079   2.166   0.107  0.1662 -0.3084  0.5048
  158PVA    H3126742   3.013   2.179   0.020  1.2327  2.4772  0.0292
  158PVA    H3226743   3.061   2.066   0.149 -0.2161 -1.4390 -2.1410
  158PVA    C1726744   3.040   2.263   0.224 -0.0341 -0.4018 -0.1571
  158PVA    H3326745   3.078   2.207   0.310  1.8155 -3.3095 -2.6575
  158PVA     O626746   3.116   2.382   0.218  0.3836  0.6825  0.2895
  158PVA    H3426747   3.143   2.413   0.307 -0.9777 -1.0132  1.3600
  158PVA    C1826748   2.887   2.295   0.250  0.4747  0.6427 -0.1759
  158PVA    H3526749   2.831   2.232   0.180  0.8669  0.3322 -0.2102
  158PVA    H3626750   2.871   2.259   0.353  2.4220  2.0934  0.6983
  158PVA    C1926751   2.849   2.447   0.232  0.8201 -1.0730 -0.3277
  158PVA    H3726752   2.850   2.484   0.129  0.4071 -0.5737 -0.1595
  158PVA    H3826753   2.922   2.505   0.291 -1.0581 -0.0421  1.0835
  158PVA    C2026754   2.703   2.497   0.261  0.1896 -0.8126  1.2020
  158PVA    H3926755   2.639   2.455   0.182  3.4513 -0.6141 -1.7756
  158PVA     O726756   2.664   2.435   0.384 -0.7373  0.1985 -0.1450
  158PVA    H4026757   2.586   2.482   0.418  0.6972  1.0013  2.2443
  158PVA    C2126758   2.691   2.655   0.264 -1.1345  0.1296  0.0844
  158PVA    H4126759   2.755   2.697   0.342 -1.1940 -1.6921  1.1573
  158PVA    H4226760   2.590   2.661   0.307 -0.9322  1.2598  0.4402
  158PVA    C2226761   2.673   2.733   0.128  1.6273 -0.0591 -0.6116
  158PVA    H4326762   2.749   2.706   0.054  1.6290 -2.0179  0.0334
  158PVA    H4426763   2.586   2.681   0.084 -0.5928  2.5012  0.4674
  158PVA    C2326764   2.620   2.877   0.134  0.2990 -0.3565 -0.6489
  158PVA    H4526765   2.696   2.933   0.190 -1.4232  1.7770 -0.3254
  158PVA     O826766   2.498   2.882   0.206  0.2673  0.3708  0.1110
  158PVA    H4626767   2.496   2.971   0.244  1.1895  1.1300 -1.5264
  158PVA    C2426768   2.628   2.964   0.007 -0.6014  0.4446  0.3186
  158PVA    H4726769   2.672   3.062   0.028 -1.9713  0.8804  1.2464
  158PVA    H4826770   2.694   2.908   8.037  0.1844 -4.8729  4.7973
  158PVA    C2526771   2.486   2.986   8.037 -0.5358  0.4034  1.2918
  158PVA    H4926772   2.437   3.048   0.016 -2.0149  0.7222  0.1154
  158PVA    H5026773   2.428   2.893   8.033  0.5659 -0.3303 -3.1657
  158PVA    C2626774   2.483   3.024   7.885  1.0768  0.9439 -0.7871
  158PVA    H5126775   2.514   2.938   7.825  2.0434  0.0667  0.9137
  158PVA     O926776   2.575   3.135   7.851  0.8913  0.3838 -0.4777
  158PVA    H5226777   2.669   3.112   7.857  0.6159 -0.4451  0.9030
  158PVA    C2726778   2.338   3.074   7.864  0.4623  0.2337  0.0952
  158PVA    H5326779   2.270   2.990   7.875  0.7379 -0.4055 -2.4605
  158PVA    H5426780   2.316   3.158   7.931  3.0401 -1.1179  2.8926
  158PVA    C2826781   2.323   3.126   7.714 -0.7296  0.1996 -0.1679
  158PVA    H5526782   2.387   3.072   7.643  0.1739  0.1658  0.6463
  158PVA    H5626783   2.228   3.091   7.672  0.3984 -0.7113 -2.1130
  158PVA    C2926784   2.312   3.284   7.703  0.8147  0.2952 -0.6277
  158PVA    H5726785   2.234   3.319   7.771  0.8812  2.5401 -1.6358
  158PVA    O1026786   2.432   3.327   7.742 -0.7556  0.2322 -0.1350
  158PVA    H5826787   2.473   3.266   7.805  0.6487 -2.3246 -3.2189
  158PVA    C3026788   2.297   3.335   7.559  0.7214 -0.6674  1.0749
  158PVA    H5926789   2.268   3.440   7.566 -2.1492 -1.3481  0.8024
  158PVA    H6026790   2.392   3.342   7.505 -0.9172 -2.5261 -2.3473
  158PVA    C3126791   2.190   3.283   7.456 -0.0069  0.3712 -0.2963
  158PVA    H6126792   2.086   3.287   7.488 -0.6396 -5.7735 -0.5377
  158PVA    H6226793   2.206   3.175   7.454  0.0502  0.3238  1.2894
  158PVA    C3226794   2.199   3.345   7.307 -0.3569 -0.3266  1.1340
  158PVA    H6326795   2.308   3.360   7.302  0.0761 -2.5566  2.5167
  158PVA    O1126796   2.174   3.240   7.213 -0.2819 -0.1475 -0.5404
  158PVA    H6426797   2.246   3.176   7.200 -2.4465 -3.2738  1.5416
  158PVA    C3326798   2.125   3.472   7.269 -1.1790 -1.2621 -0.5162
  158PVA    H6526799   2.057   3.487   7.354 -1.8047 -1.4855 -0.9719
  158PVA    H6626800   2.198   3.552   7.289  1.4327 -3.1667 -1.9548
  158PVA    C3426801   2.060   3.518   7.136 -0.1313  0.6496 -0.5959
  158PVA    H6726802   1.991   3.439   7.103 -2.5289  1.6881  1.5665
  158PVA    H6826803   2.130   3.521   7.051  1.5152  1.6462  0.7252
  158PVA    C3526804   2.020   3.666   7.117  0.3424  0.6446 -0.8261
  158PVA    H6926805   1.930   3.690   7.176  1.8630  2.7854  0.7806
  158PVA    O1226806   2.111   3.750   7.163 -0.3613  0.7276  0.2772
  158PVA    H7026807   2.164   3.750   7.081 -0.6326  0.2522  0.0980
  158PVA    C3626808   1.989   3.722   6.972 -0.3102  0.4374  0.0252
  158PVA    H7126809   2.081   3.708   6.914 -1.2174  1.7482 -1.8268
  158PVA    H7226810   1.914   3.658   6.925 -0.6000  0.1654  0.8370
  158PVA    C3726811   1.951   3.879   6.962 -0.9653  0.8750  1.2877
  158PVA    H7326812   2.013   3.925   6.884 -1.4867 -2.6014 -1.4451
  158PVA    H7426813   1.972   3.939   7.051 -2.2786  2.7150  0.4038
  158PVA    C3826814   1.819   3.922   6.910 -0.5661 -0.7903 -0.0071
  158PVA    H7526815   1.819   3.928   6.801 -0.8460 -3.1307 -0.1780
  158PVA    O1326816   1.719   3.833   6.947  0.7556 -0.2743  0.6154
  158PVA    H7626817   1.646   3.893   6.923 -2.1637 -2.3051  3.6503
  158PVA    C3926818   1.760   4.067   6.951  0.6912  0.1767  0.2260
  158PVA    H7726819   1.804   4.128   6.870 -0.7061  2.0300  0.7975
  158PVA    H7826820   1.801   4.094   7.049 -0.2796  1.6528  0.2677
  158PVA    C4026821   1.606   4.115   6.937 -1.3283 -0.5099 -0.0499
  158PVA    H7926822   1.591   4.143   6.832  3.8871  0.1849 -0.8896
  158PVA    H8026823   1.539   4.031   6.959 -0.6356 -0.4181  2.6600
  158PVA    C4126824   1.586   4.232   7.032  0.3563 -0.3103 -0.7132
  158PVA    H8126825   1.676   4.273   7.079  2.6800 -1.8921 -3.4589
  158PVA    O1426826   1.531   4.167   7.148 -0.1949  0.0761  0.2445
  158PVA    H8226827   1.438   4.193   7.133  0.0176  0.2029 -1.0421
  158PVA    C4226828   1.494   4.348   7.001  0.2979  0.7021 -0.2462
  158PVA    H8326829   1.541   4.374   6.905 -0.3929 -0.1039 -0.8139
  158PVA    H8426830   1.396   4.303   6.982  0.0571  1.4418 -0.8173
  158PVA    C4326831   1.483   4.479   7.089  0.4811 -0.2535  0.0218
  158PVA    H8526832   1.579   4.531   7.103  0.1733 -0.0547  1.5130
  158PVA    H8626833   1.442   4.436   7.181  0.2035  1.4403  0.7322
  158PVA    C4426834   1.380   4.594   7.041 -0.6366 -0.0481  1.0564
  158PVA    H8726835   1.319   4.543   6.966  3.5595 -0.0933 -2.7570
  158PVA    O1526836   1.285   4.621   7.143 -0.1330  0.5964 -1.1099
  158PVA    H8826837   1.219   4.677   7.100 -2.3704  1.4547  2.9486
  158PVA    C4526838   1.421   4.728   6.972  1.1371 -0.7749  0.1399
  158PVA    H8926839   1.516   4.723   6.917  0.7941  1.7594 -0.8650
  158PVA    H9026840   1.455   4.800   7.048  0.7498 -1.8657  1.3686
  158PVA    C4626841   1.307   4.788   6.903 -0.3887 -1.1763  1.4451
  158PVA    H9126842   1.224   4.717   6.895 -2.4999  1.2844 -1.0104
  158PVA    H9226843   1.262   4.870   6.960 -1.8433  0.0904 -1.2911
  158PVA    C4726844   1.319   4.875   6.776  0.5710  0.2770  0.5086
  158PVA    H9326845   1.349   4.973   6.815  3.6184  0.1206 -1.0820
  158PVA    O1626846   1.408   4.833   6.674 -0.1159  0.7920  0.2451
  158PVA    H9426847   1.493   4.881   6.676  1.2014 -0.9925 -3.6549
  158PVA    C4826848   1.184   4.891   6.708 -1.4060 -0.7027  0.2986
  158PVA    H9526849   1.159   4.815   6.633 -0.6063 -0.3504 -0.3429
  158PVA    H9626850   1.108   4.875   6.786 -1.2964 -2.7574  0.0334
  158PVA    C4926851   1.172   5.024   6.645 -0.1838  0.4611  0.9377
  158PVA    H9726852   1.256   5.055   6.582 -0.9580 -0.6697 -0.7028
  158PVA    H9826853   1.166   5.103   6.721 -0.5722  2.3354 -0.9613
  158PVA    C5026854   1.062   5.025   6.544  0.4761 -0.8226 -0.9394
  158PVA    H9926855   0.985   4.980   6.607  2.5808 -0.3811  2.1890
  158PVA    O1726856   1.080   4.945   6.428 -0.0436 -0.3410  0.4527
  158PVA   H10026857   1.062   4.853   6.451  1.0745 -0.9161 -0.8586
  158PVA    C5126858   1.001   5.166   6.495 -0.8799 -0.4371 -0.0494
  158PVA   H10126859   1.009   5.240   6.575 -2.9892  0.3318 -0.4932
  158PVA   H10226860   0.896   5.141   6.475  0.5522 -5.2313 -3.4213
  159PVA     C126861   5.266   2.091   7.838 -0.0836  0.6603  0.9458
  159PVA     H126862   5.356   2.110   7.899  1.9830 -1.6872 -1.1592
  159PVA     H226863   5.222   2.013   7.901 -2.5456  2.6285  1.8608
  159PVA     C226864   5.335   2.041   7.705  0.2221  0.3342 -0.6963
  159PVA     H326865   5.267   2.046   7.620 -0.4261 -1.1403 -0.2960
  159PVA     O126866   5.449   2.115   7.686 -0.7007 -0.9514  0.2625
  159PVA     H426867   5.421   2.208   7.689  0.6684 -0.5008  3.5734
  159PVA     C326868   5.375   1.887   7.711 -0.5859 -0.0257  0.5295
  159PVA     H526869   5.469   1.878   7.767  0.6725  0.6263 -1.4019
  159PVA     H626870   5.429   1.852   7.622  0.7679  0.7409  1.0127
  159PVA     C426871   5.273   1.783   7.718  0.7560  0.7755 -1.1020
  159PVA     H726872   5.221   1.815   7.809 -1.3397 -0.6172 -1.7379
  159PVA     H826873   5.209   1.806   7.632  0.4387 -2.9751 -2.0412
  159PVA     C526874   5.295   1.635   7.732  0.0469  1.5309  0.3071
  159PVA     H926875   5.338   1.602   7.637  0.1526  1.7864  0.2663
  159PVA     O226876   5.401   1.627   7.831  0.6958 -0.0680  0.0214
  159PVA    H1026877   5.483   1.653   7.785 -0.6573  3.4353 -0.7702
  159PVA     C626878   5.165   1.558   7.775  0.7141  0.7084  0.0922
  159PVA    H1126879   5.141   1.552   7.882 -1.1475 -1.9534 -0.3713
  159PVA    H1226880   5.080   1.606   7.725  1.9414  0.8304 -1.9951
  159PVA     C726881   5.164   1.410   7.719  0.8240  0.6718 -0.1803
  159PVA    H1326882   5.247   1.361   7.772 -1.1746 -2.3787  0.3560
  159PVA    H1426883   5.159   1.423   7.611 -2.5842  1.7848  0.0016
  159PVA     C826884   5.042   1.316   7.739 -0.6401  1.0127  0.8126
  159PVA    H1526885   5.084   1.219   7.710  1.9432  1.8090  1.6353
  159PVA     O326886   4.936   1.333   7.634  0.6729  0.5583 -0.0188
  159PVA    H1626887   4.895   1.414   7.670  1.4815 -0.0064  2.3702
  159PVA     C926888   4.972   1.307   7.873 -0.4547 -0.3081  0.6592
  159PVA    H1726889   4.892   1.382   7.882  2.6211  2.9919  4.3762
  159PVA    H1826890   5.042   1.346   7.949 -0.2187  0.5884  0.0009
  159PVA    C1026891   4.909   1.172   7.906 -0.1491  0.6212 -0.5060
  159PVA    H1926892   4.853   1.109   7.837  5.0512 -0.2676 -4.5312
  159PVA    H2026893   5.002   1.114   7.895  1.8108  3.9975 -4.1011
  159PVA    C1126894   4.850   1.172   8.049  0.3591 -0.4445 -1.5853
  159PVA    H2126895   4.844   1.064   8.070  3.6082 -0.6862 -1.3664
  159PVA     O426896   4.925   1.233   0.060 -1.3589  0.6991  0.3664
  159PVA    H2226897   4.945   1.326   0.037 -1.6984  0.7606  0.3122
  159PVA    C1226898   4.713   1.239   8.028  0.1835  0.2699 -0.6804
  159PVA    H2326899   4.725   1.347   8.014  0.6469  0.3011 -0.0662
  159PVA    H2426900   4.668   1.193   7.939 -1.6451 -1.4712  1.0286
  159PVA    C1326901   4.614   1.197   0.044 -0.6068  0.7731 -0.1563
  159PVA    H2526902   4.628   1.237   0.145  2.6228  0.8038 -0.5149
  159PVA    H2626903   4.638   1.092   0.064  2.6963  1.3515 -0.6037
  159PVA    C1426904   4.464   1.191   0.011 -0.7359 -0.6908 -0.5917
  159PVA    H2726905   4.438   1.279   8.047  3.2352  1.8224  0.9096
  159PVA     O526906   4.447   1.087   8.011  0.5576 -0.8436 -1.1218
  159PVA    H2826907   4.519   1.022   8.020  0.9471 -0.4800 -1.5481
  159PVA    C1526908   4.374   1.181   0.131 -0.8305 -0.3269 -1.0016
  159PVA    H2926909   4.398   1.267   0.195 -4.9939  0.3490 -0.0792
  159PVA    H3026910   4.415   1.089   0.177  2.8561  2.2061  1.3839
  159PVA    C1626911   4.227   1.195   0.102  0.3613  0.2052 -0.2372
  159PVA    H3126912   4.197   1.099   0.058 -2.3120 -0.6408  2.9735
  159PVA    H3226913   4.207   1.266   0.020 -2.5464 -0.0053  0.1806
  159PVA    C1726914   4.130   1.218   0.219  0.9435  1.1577 -0.0915
  159PVA    H3326915   4.134   1.124   0.275 -0.8766  0.5180 -0.9271
  159PVA     O626916   4.143   1.329   0.301  0.0019  0.1539 -0.1405
  159PVA    H3426917   4.189   1.312   0.385 -0.6116 -1.2361 -0.0657
  159PVA    C1826918   3.979   1.217   0.174  0.2371  0.3041  0.3470
  159PVA    H3526919   3.934   1.314   0.149  1.4393  1.8138  3.4588
  159PVA    H3626920   3.956   1.136   0.104 -1.2351  0.1849  0.9228
  159PVA    C1926921   3.894   1.166   0.295  0.3244  0.5626  0.9906
  159PVA    H3726922   3.913   1.237   0.377  2.9887 -2.3256  3.0905
  159PVA    H3826923   3.925   1.066   0.326 -0.3617 -0.0241 -0.1336
  159PVA    C2026924   3.747   1.151   0.276  0.3084  0.7618  0.0495
  159PVA    H3926925   3.724   1.108   0.177 -3.1611 -2.0072  1.8325
  159PVA     O726926   3.691   1.277   0.292  0.2633  0.4863  0.9505
  159PVA    H4026927   3.737   1.301   0.209 -2.8518  0.6894 -0.8563
  159PVA    C2126928   3.675   1.042   0.355 -0.4976 -1.1314  0.0653
  159PVA    H4126929   3.662   1.076   0.459 -5.5628 -0.0229 -0.6596
  159PVA    H4226930   3.729   0.947   0.356  1.5243 -0.0897 -2.0250
  159PVA    C2226931   3.532   1.007   0.300  1.1477  0.6446  1.0420
  159PVA    H4326932   3.470   1.097   0.295  1.3054  0.7316  0.4484
  159PVA    H4426933   3.547   0.973   0.196  0.7719 -0.3372  1.2986
  159PVA    C2326934   3.454   0.886   0.350  0.0036 -0.3851 -0.0472
  159PVA    H4526935   3.499   0.799   0.302 -1.0742 -0.0453 -1.7815
  159PVA     O826936   3.456   0.888   0.482  0.5524 -0.0523  0.9180
  159PVA    H4626937   3.551   0.887   0.503  0.6339 -0.3882  0.5312
  159PVA    C2426938   3.292   0.876   0.315 -1.1493 -0.0191 -0.3195
  159PVA    H4726939   3.239   0.957   0.367  0.5676 -0.3619  2.1560
  159PVA    H4826940   3.275   0.901   0.209 -0.6934  2.2521  0.0775
  159PVA    C2526941   3.232   0.735   0.349 -0.8205 -0.2790  0.1820
  159PVA    H4926942   3.288   0.676   0.423 -1.4023 -2.7418 -1.2269
  159PVA    H5026943   3.245   0.687   0.251 -1.8388 -0.3296  0.0641
  159PVA    C2626944   3.073   0.733   0.375  0.4749 -0.2519 -0.5273
  159PVA    H5126945   3.064   0.768   0.479 -2.4934  0.9352 -1.1050
  159PVA     O926946   3.030   0.600   0.381  0.4143  0.1110  0.3201
  159PVA    H5226947   3.034   0.564   0.290 -3.9541  1.4737 -0.6232
  159PVA    C2726948   2.983   0.804   0.264  0.2435  0.2668  0.5088
  159PVA    H5326949   2.956   0.730   0.187  2.5495 -0.8082  0.6392
  159PVA    H5426950   3.039   0.889   0.224  0.0887  1.6268  3.0220
  159PVA    C2826951   2.848   0.849   0.320  0.6612  0.3801 -0.0649
  159PVA    H5526952   2.807   0.794   0.406  1.1663 -1.1923 -0.7919
  159PVA    H5626953   2.871   0.944   0.369 -2.1595 -0.3525  3.0651
  159PVA    C2926954   2.725   0.871   0.206 -1.0107 -0.5119  0.3753
  159PVA    H5726955   2.695   0.771   0.172  0.4403 -0.5546 -0.9040
  159PVA    O1026956   2.786   0.946   0.098  0.0883 -0.0654 -0.1163
  159PVA    H5826957   2.742   0.948   0.012  1.8123  1.2381 -1.0309
  159PVA    C3026958   2.603   0.970   0.254 -0.1736 -1.5523 -0.9169
  159PVA    H5926959   2.612   1.076   0.230 -4.8562  0.2094  3.4527
  159PVA    H6026960   2.608   0.986   0.362 -0.9358  1.5300 -1.2561
  159PVA    C3126961   2.454   0.919   0.234 -0.3218 -0.5012  0.4928
  159PVA    H6126962   2.450   0.901   0.126  1.6405 -0.8933  0.4606
  159PVA    H6226963   2.445   0.827   0.293 -0.1861 -3.9760 -4.3020
  159PVA    C3226964   2.343   1.007   0.268  0.6235 -0.0320 -1.3545
  159PVA    H6326965   2.391   1.103   0.245 -2.4037  1.7983 -0.6018
  159PVA    O1126966   2.317   1.001   0.415 -0.5172  0.6205  0.2904
  159PVA    H6426967   2.380   1.058   0.464 -0.7258 -0.4068  1.8329
  159PVA    C3326968   2.210   0.999   0.184  1.1058  1.0553 -0.0698
  159PVA    H6526969   2.226   0.937   0.095 -0.2731  0.0732  0.3382
  159PVA    H6626970   2.194   1.101   0.147  2.1932  0.9311 -0.9741
  159PVA    C3426971   2.075   0.956   0.253  0.5890 -0.0629  0.2340
  159PVA    H6726972   2.066   1.008   0.350 -2.7261  1.7090 -0.8752
  159PVA    H6826973   2.074   0.848   0.271 -2.5297  0.0676  1.5416
  159PVA    C3526974   1.956   0.993   0.153 -1.5104  0.1945 -1.3595
  159PVA    H6926975   1.966   1.100   0.133 -3.8342  0.7134 -0.0929
  159PVA    O1226976   1.971   0.918   0.029 -0.5247  0.0697 -0.1336
  159PVA    H7026977   2.054   0.872   0.048  0.7845  2.3836  0.0019
  159PVA    C3626978   1.823   0.975   0.235  0.0484  0.6049  1.1855
  159PVA    H7126979   1.788   0.871   0.244 -3.0801  1.2461 -1.3929
  159PVA    H7226980   1.841   1.002   0.339 -1.3444  1.8759  1.1325
  159PVA    C3726981   1.702   1.055   0.180 -0.0649 -0.1328  0.4981
  159PVA    H7326982   1.742   1.089   0.084 -0.5608 -2.2990 -0.5419
  159PVA    H7426983   1.681   1.150   0.230  0.1613  0.6020 -0.7734
  159PVA    C3826984   1.570   0.990   0.131 -0.2286 -0.0034 -0.9835
  159PVA    H7526985   1.588   0.948   0.031 -0.5492  3.1558 -2.4953
  159PVA    O1326986   1.532   0.884   0.220  0.6049  0.4953  0.2312
  159PVA    H7626987   1.577   0.902   0.305 -2.9855  0.1877  2.4129
  159PVA    C3926988   1.444   1.088   0.135 -0.0252  0.0793 -0.4175
  159PVA    H7726989   1.463   1.160   0.215 -4.0067  2.3456 -1.2457
  159PVA    H7826990   1.444   1.143   0.040  1.8357  0.7814 -0.0512
  159PVA    C4026991   1.305   1.020   0.173  0.8889  0.0489  0.0904
  159PVA    H7926992   1.300   0.945   0.253 -1.4273 -0.5180 -0.5182
  159PVA    H8026993   1.273   0.948   0.097 -0.7281 -0.3177  1.0539
  159PVA    C4126994   1.183   1.117   0.205  0.8231  0.7709 -0.1248
  159PVA    H8126995   1.101   1.047   0.223  0.4845  1.0572 -0.5170
  159PVA    O1426996   1.198   1.205   0.308  0.3122 -0.0797 -0.4772
  159PVA    H8226997   1.236   1.287   0.271  1.5815  0.8460  2.5976
  159PVA    C4226998   1.136   1.190   0.076 -0.0134 -0.5079  0.2992
  159PVA    H8326999   1.193   1.281   0.051 -2.8111  1.1916 -0.3689
  159PVA    H8427000   1.164   1.125   8.090  2.1962 -3.9529  3.4368
  159PVA    C4327001   0.985   1.206   0.069  0.0485 -1.0238 -0.1350
  159PVA    H8527002   0.959   1.267   0.156  2.3453  5.3562 -3.3208
  159PVA    H8627003   0.934   1.110   0.085  0.4773 -1.4329 -1.1279
  159PVA    C4427004   0.935   1.299   8.054 -0.0444 -0.4089  0.0284
  159PVA    H8727005   1.022   1.356   8.019  0.2450 -0.8879 -0.0460
  159PVA    O1527006   0.841   1.397   0.001 -0.7004 -0.0460 -0.4487
  159PVA    H8827007   0.907   1.462   0.031 -0.4359  1.0487 -3.1820
  159PVA    C4527008   0.866   1.228   7.925 -0.5728 -0.3394 -0.6211
  159PVA    H8927009   0.816   1.136   7.957  3.3552 -2.1644  0.9175
  159PVA    H9027010   0.938   1.176   7.861  0.0181 -2.4435  1.5870
  159PVA    C4627011   0.783   1.321   7.834  0.1195  1.0996 -0.1833
  159PVA    H9127012   0.755   1.412   7.890 -0.1809 -1.1834  3.7319
  159PVA    H9227013   0.830   1.352   7.740 -0.5712 -1.8585 -1.6015
  159PVA    C4727014   0.653   1.253   7.800 -0.3885  0.5429 -0.0578
  159PVA    H9327015   0.630   1.184   7.882  3.5096 -0.1703  0.6309
  159PVA    O1627016   0.673   1.182   7.666  0.8339 -0.4619  0.1537
  159PVA    H9427017   0.681   1.260   7.608 -0.1881 -0.8941 -0.5958
  159PVA    C4827018   0.524   1.336   7.793 -0.6068 -0.2963  0.0961
  159PVA    H9527019   0.537   1.417   7.720 -1.1446  1.2284  1.6402
  159PVA    H9627020   0.507   1.398   7.881 -3.3456 -0.8985  0.0683
  159PVA    C4927021   0.380   1.258   7.794 -0.0897 -0.0355  0.3436
  159PVA    H9727022   0.382   1.169   7.858  1.8044  1.5702  2.7322
  159PVA    H9827023   0.311   1.324   7.847 -0.5124  1.5818 -2.0938
  159PVA    C5027024   0.308   1.219   7.655 -0.5345 -0.3942 -0.5814
  159PVA    H9927025   0.370   1.239   7.566  1.5743  0.1731  0.9389
  159PVA    O1727026   0.308   1.075   7.654 -0.0984 -0.0357 -0.6846
  159PVA   H10027027   0.336   1.048   7.565 -0.3526 -2.5762 -0.0786
  159PVA    C5127028   0.164   1.270   7.636  0.1493  0.5489 -0.2513
  159PVA   H10127029   0.125   1.339   7.712  2.0467 -1.8169  3.0991
  159PVA   H10227030   0.113   1.175   7.655  2.8759 -0.7156  1.2600
  160PVA     C127031   0.229   5.487   6.233  0.1576  0.0694 -0.2012
  160PVA     H127032   0.285   5.411   6.289  1.5413  0.6705 -0.7022
  160PVA     H227033   0.221   5.455   6.129 -1.1672 -2.5119  0.6280
  160PVA     C227034   0.077   5.495   6.269 -0.3736  0.3764  0.0801
  160PVA     H327035   0.067   5.563   6.354 -4.3412 -0.0399  0.1783
  160PVA     O127036   0.048   5.375   6.324 -0.6551  1.4493 -0.2107
  160PVA     H427037   0.098   5.365   6.407 -3.1029 -0.2076  1.1870
  160PVA     C327038   7.740   5.532   6.159  0.5025  0.1417  0.4304
  160PVA     H527039   7.749   5.452   6.085 -0.2845  0.5900 -0.1554
  160PVA     H627040   0.025   5.608   6.099  2.8897 -3.3522 -2.4503
  160PVA     C427041   7.596   5.561   6.196 -0.3286  0.3947 -0.0582
  160PVA     H727042   7.546   5.579   6.100 -1.0923  3.7439  0.8673
  160PVA     H827043   7.559   5.463   6.229  1.0837 -0.4769 -0.9262
  160PVA     C527044   7.568   5.660   6.305  0.9000 -0.7495 -0.1586
  160PVA     H927045   7.627   5.634   6.394  5.7028 -1.5479 -3.1698
  160PVA     O227046   7.428   5.648   6.350  0.1832 -0.2580  0.1820
  160PVA    H1027047   7.421   5.556   6.382 -0.7010 -0.0958  0.4696
  160PVA     C627048   7.606   5.805   6.255 -0.4671 -0.5676 -0.5906
  160PVA    H1127049   7.706   5.840   6.282  0.6069 -2.3371 -2.0574
  160PVA    H1227050   7.623   5.818   6.147 -0.2980  2.9273 -0.2697
  160PVA     C727051   7.503   5.908   6.278  0.5990  0.8483 -0.0442
  160PVA    H1327052   7.439   5.918   6.190 -0.1277  2.6170  0.6440
  160PVA    H1427053   7.442   5.877   6.364  2.4476 -1.0248  0.6679
  160PVA     C827054   7.544   6.057   6.315  0.3620  0.3720 -0.2099
  160PVA    H1527055   7.623   6.036   6.388  0.8982  0.0057 -0.8839
  160PVA     O327056   7.604   6.129   6.203 -0.3728  0.6209  0.5222
  160PVA    H1627057   7.533   6.158   6.143 -1.1444 -0.5192  0.8747
  160PVA     C927058   7.420   6.132   6.380  0.9070  0.9547 -0.0096
  160PVA    H1727059   7.391   6.077   6.470  1.0339 -0.8713 -1.0409
  160PVA    H1827060   7.334   6.137   6.311  0.2238  1.5606  0.8618
  160PVA    C1027061   7.460   6.278   6.431 -0.0527  0.6674  0.3602
  160PVA    H1927062   7.386   6.312   6.504 -1.6023  1.0790 -1.3310
  160PVA    H2027063   7.552   6.294   6.488  0.6328  0.1072 -0.5529
  160PVA    C1127064   7.469   6.382   6.317  0.5415  0.4063  0.9816
  160PVA    H2127065   7.568   6.382   6.271  0.0820  0.5352 -0.0653
  160PVA     O427066   7.386   6.345   6.218  0.0018  0.0913 -0.0528
  160PVA    H2227067   7.343   6.260   6.236 -2.2497  0.8039 -1.6228
  160PVA    C1227068   7.429   6.534   6.340 -0.1448  0.2578  0.6876
  160PVA    H2327069   7.424   6.582   6.241 -1.8536  0.4737  0.8464
  160PVA    H2427070   7.324   6.546   6.370 -0.3550  2.5972 -0.7070
  160PVA    C1327071   7.505   6.611   6.449 -0.6738  0.4283 -1.0363
  160PVA    H2527072   7.614   6.609   6.437  0.2519  2.4301  4.3981
  160PVA    H2627073   7.488   6.561   6.545 -2.9817  1.4654 -0.8447
  160PVA    C1427074   7.446   6.752   6.444  0.2515  0.0120 -0.8084
  160PVA    H2727075   7.429   6.784   6.547 -1.6014 -0.0853 -1.0593
  160PVA     O527076   7.308   6.774   6.410  0.0972  0.9124  0.9412
  160PVA    H2827077   7.273   6.685   6.390 -2.7020  1.4074  3.1745
  160PVA    C1527078   7.546   6.867   6.383 -0.3629  0.5389 -0.5381
  160PVA    H2927079   7.487   6.956   6.359  0.3942  1.2493  0.1546
  160PVA    H3027080   7.560   6.828   6.281  2.7556 -0.8968  0.3230
  160PVA    C1627081   7.679   6.897   6.476 -0.3489 -0.1950  1.3111
  160PVA    H3127082   7.638   6.936   6.570 -0.8095 -2.2753  2.0139
  160PVA    H3227083   7.731   6.806   6.507 -0.1912  0.2199  2.3073
  160PVA    C1727084   0.010   6.993   6.392  2.2043 -0.3035 -0.2449
  160PVA    H3327085   7.711   7.075   6.358  0.0570 -2.6147 -2.0987
  160PVA     O627086   0.064   6.907   6.297 -0.2805 -1.0532  0.1422
  160PVA    H3427087   0.114   6.839   6.346 -1.5268 -1.4392  0.9032
  160PVA    C1827088   0.123   7.052   6.484  0.5837 -0.5825 -0.2807
  160PVA    H3527089   0.088   7.141   6.538  2.5272  1.6868 -2.4984
  160PVA    H3627090   0.161   6.980   6.557  4.0983 -0.0422 -1.3607
  160PVA    C1927091   0.247   7.088   6.417 -0.5161 -0.8846  0.6008
  160PVA    H3727092   0.227   7.146   6.326  0.8535 -0.6819  0.4009
  160PVA    H3827093   0.291   6.997   6.374  0.7050 -0.1088  0.1541
  160PVA    C2027094   0.346   7.162   6.510  0.2484  0.1321 -1.8717
  160PVA    H3927095   0.443   7.109   6.512  0.5246  0.3424  2.8987
  160PVA     O727096   0.304   7.177   6.657 -0.2829  0.8226  0.4007
  160PVA    H4027097   0.301   7.269   6.688  0.6713  0.9432  0.1836
  160PVA    C2127098   0.373   7.319   6.483  0.9327  0.5335  0.6519
  160PVA    H4127099   0.276   7.362   6.455  1.1660 -0.5350 -2.1795
  160PVA    H4227100   0.438   7.304   6.395 -0.4905 -0.4771 -0.2726
  160PVA    C2227101   0.430   7.418   6.576  1.1328  0.3449 -0.2294
  160PVA    H4327102   0.508   7.383   6.645  1.6871  3.4166  0.8582
  160PVA    H4427103   0.494   7.473   6.505  2.3875 -3.1543 -2.0656
  160PVA    C2327104   0.327   7.500   6.649 -0.2334 -0.3204 -1.7484
  160PVA    H4527105   0.244   7.510   6.577  0.5270 -2.1089 -2.9512
  160PVA     O827106   0.282   7.433   6.774 -1.1297  0.1670 -0.0804
  160PVA    H4627107   0.229   7.505   6.814 -1.0873  0.3129 -0.2829
  160PVA    C2427108   0.372   7.647   6.681 -0.3333  0.3259  0.2010
  160PVA    H4727109   0.422   7.617   6.773  2.2173 -0.6071 -1.3816
  160PVA    H4827110   0.447   0.002   6.612  2.0428 -2.8563  0.7308
  160PVA    C2527111   0.256   0.038   6.718  1.0522  0.8963  0.2863
  160PVA    H4927112   0.295   0.132   6.761  1.2285  0.2480  1.6041
  160PVA    H5027113   0.186   7.660   6.774  0.8130 -0.2535 -1.2336
  160PVA    C2627114   0.197   0.085   6.587 -0.0449  0.5193 -0.5797
  160PVA    H5127115   0.186   0.010   6.508 -0.2638  1.6433 -1.6594
  160PVA     O927116   0.275   0.192   6.540 -0.2343 -0.4976  0.6010
  160PVA    H5227117   0.293   0.180   6.445  3.9082  0.1752  1.1438
  160PVA    C2727118   0.054   0.141   6.606 -0.2303 -0.6021 -0.3977
  160PVA    H5327119   0.057   0.244   6.645 -3.9479 -0.2062 -0.7516
  160PVA    H5427120   0.001   0.076   6.677 -0.5658  0.6006  0.4893
  160PVA    C2827121   7.744   0.152   6.482 -0.1389 -0.1477 -0.5449
  160PVA    H5527122   0.015   0.192   6.387 -1.9477 -0.4936 -1.4335
  160PVA    H5627123   7.743   0.049   6.444 -1.8032  0.4688 -2.3689
  160PVA    C2927124   7.597   0.179   6.495  0.2581 -0.0265  0.1582
  160PVA    H5727125   7.549   0.113   6.569  0.1201 -2.8311 -2.2393
  160PVA    O1027126   7.590   0.308   6.556 -0.9324  0.2912  1.0240
  160PVA    H5827127   7.639   0.293   6.638  1.5186  0.3567 -0.3471
  160PVA    C3027128   7.514   0.163   6.366 -0.0458 -0.8078  0.3303
  160PVA    H5927129   7.524   0.067   6.313 -0.8897 -2.4359  2.9261
  160PVA    H6027130   7.411   0.170   6.404 -0.7053 -1.4390 -1.2662
  160PVA    C3127131   7.513   0.290   6.273  0.2553  0.2592  0.1179
  160PVA    H6127132   7.505   0.384   6.328 -1.8854  0.0970  0.1527
  160PVA    H6227133   7.606   0.297   6.215  0.8478  4.4335  1.2489
  160PVA    C3227134   7.387   0.267   6.184 -0.8013  0.2084  0.0295
  160PVA    H6327135   7.369   0.159   6.185  0.0127  0.0516  2.0819
  160PVA    O1127136   7.423   0.291   6.055 -0.9779  0.1105 -0.5742
  160PVA    H6427137   7.386   0.217   6.004 -0.6031  0.3010 -1.1328
  160PVA    C3327138   7.261   0.334   6.232 -0.3216 -0.7223 -0.8190
  160PVA    H6527139   7.268   0.440   6.203  0.6515  0.3207  2.7584
  160PVA    H6627140   7.250   0.324   6.340 -1.5822  2.9766 -0.4760
  160PVA    C3427141   7.129   0.270   6.195  0.4296  0.7140 -0.3734
  160PVA    H6727142   7.148   0.215   6.103  3.5985 -2.1712  1.7288
  160PVA    H6827143   7.095   0.197   6.270 -3.0670  2.0670 -0.4765
  160PVA    C3527144   7.013   0.368   6.180  0.0998 -0.0264 -0.4092
  160PVA    H6927145   6.927   0.303   6.157 -0.5023 -1.2276  4.2717
  160PVA    O1227146   7.046   0.455   6.071  0.0943 -0.5738  0.1399
  160PVA    H7027147   6.971   0.516   6.058  0.1822  0.2400  2.7602
  160PVA    C3627148   6.976   0.462   6.304 -0.3971  0.4132 -0.1339
  160PVA    H7127149   6.970   0.390   6.387  2.5471  1.6653  1.3152
  160PVA    H7227150   7.070   0.515   6.320  0.1319 -0.3430 -0.7166
  160PVA    C3727151   6.860   0.563   6.274  0.1112  0.3332 -0.1113
  160PVA    H7327152   6.799   0.527   6.191  0.2527  0.5369 -0.3062
  160PVA    H7427153   6.911   0.653   6.237  1.4630  0.4575  1.8459
  160PVA    C3827154   6.771   0.599   6.397 -0.6070 -1.1903  0.0842
  160PVA    H7527155   6.710   0.683   6.362  2.7460  2.0325  1.3756
  160PVA    O1327156   6.694   0.482   6.426 -0.0807  0.5062 -0.8369
  160PVA    H7627157   6.607   0.501   6.464  0.9775  1.3286  1.3310
  160PVA    C3927158   6.840   0.644   6.528  0.5512  0.4148 -0.8068
  160PVA    H7727159   6.906   0.729   6.505  1.0154  0.3412  0.2176
  160PVA    H7827160   6.896   0.558   6.567 -0.2814 -0.4781 -1.5245
  160PVA    C4027161   6.759   0.697   6.648 -0.9799  0.0868 -0.9372
  160PVA    H7927162   6.690   0.777   6.617  1.7074  2.6550 -0.7109
  160PVA    H8027163   6.689   0.623   6.690  0.1860  0.4630  1.9245
  160PVA    C4127164   6.843   0.780   6.755  0.8873 -0.4930 -0.0780
  160PVA    H8127165   6.893   0.872   6.723  2.0037  0.9297  4.9701
  160PVA    O1427166   6.747   0.809   6.861 -0.4690 -0.4296 -0.5945
  160PVA    H8227167   6.761   0.758   6.942 -4.4156  0.3526  0.8219
  160PVA    C4227168   6.962   0.706   6.817  0.0362 -0.8345 -0.9021
  160PVA    H8327169   6.922   0.655   6.905  0.9506  2.3565  1.5751
  160PVA    H8427170   7.003   0.634   6.746 -0.8014 -3.0116  0.7007
  160PVA    C4327171   7.079   0.807   6.848  0.6262  0.3963  0.2911
  160PVA    H8527172   7.046   0.886   6.917 -2.0220  1.0873 -1.6214
  160PVA    H8627173   7.101   0.862   6.756 -3.6904  2.0567  0.0177
  160PVA    C4427174   7.214   0.745   6.892 -0.3033  0.8174  0.4883
  160PVA    H8727175   7.279   0.753   6.804 -1.2012  0.6100 -0.2119
  160PVA    O1527176   7.213   0.599   6.911  0.9324 -0.0324  0.4416
  160PVA    H8827177   7.175   0.591   7.001  3.0354 -2.2999  1.2493
  160PVA    C4527178   7.261   0.830   7.012  0.3089  0.8181  0.6738
  160PVA    H8927179   7.177   0.834   7.082 -1.9840 -0.7592 -1.7528
  160PVA    H9027180   7.269   0.935   6.983 -3.0100  2.3830  4.5856
  160PVA    C4627181   7.387   0.780   7.081  0.1309  0.2585  0.1996
  160PVA    H9127182   7.465   0.795   7.006  0.1157  2.3503  0.5563
  160PVA    H9227183   7.377   0.678   7.122  1.4351  0.8288  2.0564
  160PVA    C4727184   7.409   0.854   7.220 -0.5092  0.5607 -0.5818
  160PVA    H9327185   7.327   0.826   7.286 -0.1636 -2.6368 -1.3708
  160PVA    O1627186   7.520   0.790   7.276 -0.1411 -0.5765 -0.5155
  160PVA    H9427187   7.594   0.853   7.266  2.9396 -3.6229  1.0401
  160PVA    C4827188   7.398   1.002   7.220 -0.5856  0.6136  0.4674
  160PVA    H9527189   7.318   1.038   7.154 -0.6823  3.1374  1.8509
  160PVA    H9627190   7.366   1.034   7.320  1.5831 -0.7250  1.6733
  160PVA    C4927191   7.532   1.071   7.161  0.2288  0.1963  0.0089
  160PVA    H9727192   7.538   1.031   7.059  2.2677 -0.1888  0.2361
  160PVA    H9827193   7.629   1.032   7.195 -0.0361 -3.1910 -2.6266
  160PVA    C5027194   7.502   1.220   7.166 -0.3151 -0.3444 -0.1773
  160PVA    H9927195   7.401   1.246   7.131  1.3890  3.8577 -2.7994
  160PVA    O1727196   7.604   1.291   7.089  1.1348 -0.1058  0.3515
  160PVA   H10027197   7.586   1.251   7.002 -1.3835 -1.6645  1.4766
  160PVA    C5127198   7.526   1.268   7.312  0.7087 -1.0273 -0.3470
  160PVA   H10127199   7.472   1.211   7.389 -1.3774  2.6156  1.1293
  160PVA   H10227200   7.467   1.360   7.323  1.0001 -0.8853  0.0465
  161PVA     C127201   0.315   5.960   6.092 -0.7478  0.3649 -0.4504
  161PVA     H127202   0.364   5.903   6.012  0.0918 -3.0794  2.2793
  161PVA     H227203   0.370   6.050   6.121 -0.7479 -0.0144  0.7890
  161PVA     C227204   0.158   5.990   6.084  0.5272 -0.0904 -0.5216
  161PVA     H327205   0.112   5.910   6.024 -1.7244  2.0178 -1.8142
  161PVA     O127206   0.090   6.016   6.204 -0.2697 -0.2147  0.0461
  161PVA     H427207   7.761   6.026   6.180 -0.5701  0.1027  1.2687
  161PVA     C327208   0.134   6.121   5.992 -0.8815  0.3252 -0.2308
  161PVA     H527209   0.027   6.126   5.968 -0.9535  1.2616  0.2244
  161PVA     H627210   0.169   6.087   5.894 -0.2645 -0.3789  0.2308
  161PVA     C427211   0.194   6.257   6.035  0.9211  0.0046 -0.7734
  161PVA     H727212   0.191   6.272   6.144  1.2338 -1.2547 -0.5738
  161PVA     H827213   0.297   6.249   5.997  0.7628 -1.4597 -0.9477
  161PVA     C527214   0.137   6.386   5.966 -0.2931 -0.3283  0.0553
  161PVA     H927215   0.127   6.367   5.859 -1.3606 -0.1643  0.1132
  161PVA     O227216   0.241   6.494   5.959 -0.7596  0.4268 -0.4762
  161PVA    H1027217   0.193   6.579   5.960 -0.4091  0.6278 -0.1699
  161PVA     C627218   0.009   6.442   6.021  0.6643  0.0900 -0.4760
  161PVA    H1127219   7.700   6.362   6.028  0.8961 -0.0611  0.3443
  161PVA    H1227220   0.029   6.467   6.125  2.6341  1.0116 -1.0188
  161PVA     C727221   7.709   6.564   5.948 -1.0941 -0.6082  0.0977
  161PVA    H1327222   7.603   6.538   5.944 -0.6878 -2.3173 -0.3777
  161PVA    H1427223   7.763   6.583   5.854 -1.1970  1.9240  0.4706
  161PVA     C827224   7.701   6.684   6.045 -0.7683  0.0731  1.1983
  161PVA    H1527225   7.652   6.665   6.141 -1.1014  1.9067  1.4324
  161PVA     O327226   0.070   6.733   6.052 -0.3345 -0.3243  0.4892
  161PVA    H1627227   0.079   6.768   6.143 -4.0054  3.0551 -0.1920
  161PVA     C927228   7.604   6.787   5.965 -0.9399 -0.5177 -0.3090
  161PVA    H1727229   7.503   6.744   5.969 -1.4110  0.5460 -0.6983
  161PVA    H1827230   7.634   6.784   5.860 -1.3810  0.6068 -0.4727
  161PVA    C1027231   7.612   6.925   6.031  0.0249 -0.0197  0.8177
  161PVA    H1927232   7.504   6.947   6.036 -0.7363 -2.2709 -2.4712
  161PVA    H2027233   7.678   6.940   6.117  2.8889  1.0614 -1.3916
  161PVA    C1127234   7.670   7.026   5.938  0.9015  0.6956  1.0831
  161PVA    H2127235   7.658   7.124   5.987 -0.8375 -0.4072  3.0153
  161PVA     O427236   7.579   7.024   5.828 -0.4697  0.6037  0.0881
  161PVA    H2227237   7.544   6.934   5.831  2.5209 -0.7459 -1.2269
  161PVA    C1227238   0.064   7.002   5.904  0.5361 -0.2439 -0.0993
  161PVA    H2327239   0.124   6.973   5.992 -3.1669  0.0057  2.7340
  161PVA    H2427240   0.064   6.916   5.836 -1.1117 -0.7575  0.5110
  161PVA    C1327241   0.129   7.109   5.826  0.5841 -0.2290 -0.1902
  161PVA    H2527242   0.101   7.113   5.720  1.0570 -3.8600 -0.5899
  161PVA    H2627243   0.238   7.100   5.811  0.5697  2.8604 -3.2158
  161PVA    C1427244   0.094   7.251   5.878 -0.2105 -0.3406  1.0054
  161PVA    H2727245   7.752   7.260   5.855  0.4559  0.3370 -2.3216
  161PVA     O527246   0.115   7.257   6.019 -0.0204 -0.0609 -0.2439
  161PVA    H2827247   0.151   7.167   6.030 -1.1283 -0.7593 -1.9127
  161PVA    C1527248   0.172   7.374   5.811 -0.1625  0.5024 -0.0947
  161PVA    H2927249   0.138   7.364   5.707 -0.6084 -0.6958  0.1560
  161PVA    H3027250   0.275   7.336   5.812  0.0860  0.4375 -4.9783
  161PVA    C1627251   0.137   7.501   5.886 -1.1712 -0.5498 -0.0460
  161PVA    H3127252   0.030   7.503   5.908 -1.5357  5.7464 -0.5470
  161PVA    H3227253   0.170   7.494   5.990 -1.9467  3.7359  0.6914
  161PVA    C1727254   0.173   7.636   5.817  0.4148  0.3520 -0.0639
  161PVA    H3327255   0.137   7.646   5.714 -3.1868  0.7776  1.0890
  161PVA     O627256   0.310   7.662   5.816  0.1059  0.6303 -0.3181
  161PVA    H3427257   0.355   7.607   5.750 -0.6600 -2.9272  1.8758
  161PVA    C1827258   0.116   0.073   5.895  0.8188 -0.5855  0.3287
  161PVA    H3527259   0.018   0.050   5.937  0.2735 -0.6175 -0.9004
  161PVA    H3627260   0.168   0.102   5.987  2.4801  0.7609 -0.9733
  161PVA    C1927261   0.101   0.205   5.814  0.2638  0.2714 -0.2691
  161PVA    H3727262   0.020   0.272   5.844 -0.7257 -0.0608 -2.0163
  161PVA    H3827263   0.045   0.186   5.721 -1.9245  0.8148  0.8691
  161PVA    C2027264   0.225   0.276   5.769 -1.9887 -0.2589  0.3357
  161PVA    H3927265   0.214   0.384   5.778 -1.1830 -0.0518 -0.8331
  161PVA     O727266   0.323   0.233   5.859 -1.1347  0.9862 -0.4389
  161PVA    H4027267   0.316   0.136   5.865  3.6252  0.4332  5.0965
  161PVA    C2127268   0.275   0.227   5.620 -0.8578 -0.2469  0.9023
  161PVA    H4127269   0.203   0.157   5.578  1.1010 -1.8041 -0.0616
  161PVA    H4227270   0.370   0.174   5.632 -1.3056 -0.6501  3.1906
  161PVA    C2227271   0.317   0.349   5.524 -0.6103  0.9849 -0.4212
  161PVA    H4327272   0.236   0.423   5.525 -3.7199 -2.1185 -1.2580
  161PVA    H4427273   0.405   0.390   5.574 -0.4130 -0.7975  0.7825
  161PVA    C2327274   0.347   0.297   5.385 -0.6748  1.3839 -0.2303
  161PVA    H4527275   0.410   0.207   5.388 -2.8909 -0.5241 -3.5578
  161PVA     O827276   0.232   0.234   5.317  0.2216  0.9806 -0.7170
  161PVA    H4627277   0.190   0.201   5.398  3.4190 -3.7412 -0.5701
  161PVA    C2427278   0.420   0.395   5.285  1.0928  0.6083  0.5533
  161PVA    H4727279   0.497   0.448   5.344  4.3607  0.8558 -3.4928
  161PVA    H4827280   0.479   0.340   5.211 -0.9829  1.4127 -1.8402
  161PVA    C2527281   0.336   0.481   5.193  0.3235 -0.0356  0.1592
  161PVA    H4927282   0.279   0.559   5.245 -1.3912  0.0813 -1.7743
  161PVA    H5027283   0.257   0.431   5.135 -1.7841  0.8355  2.1386
  161PVA    C2627284   0.417   0.550   5.083 -0.3834 -0.1189 -1.1507
  161PVA    H5127285   0.495   0.604   5.138 -1.9038 -2.4746  3.9141
  161PVA     O927286   0.483   0.452   5.007  0.5053 -0.8274  0.0399
  161PVA    H5227287   0.410   0.412   4.957  1.9987 -1.5494 -1.6549
  161PVA    C2727288   0.324   0.645   5.000 -0.3815  0.1253 -0.2593
  161PVA    H5327289   0.305   0.722   5.076 -0.9197 -0.5199  0.2847
  161PVA    H5427290   0.231   0.587   4.988  0.9370 -2.3574  0.7859
  161PVA    C2827291   0.381   0.703   4.864  0.3743 -0.4697 -0.0352
  161PVA    H5527292   0.489   0.720   4.863  0.2766  0.2830 -2.4233
  161PVA    H5627293   0.359   0.618   4.799 -1.5690 -1.7298  2.0984
  161PVA    C2927294   0.311   0.827   4.802  0.5999  0.0378  0.1669
  161PVA    H5727295   0.238   0.799   4.725  0.5862 -2.3289  0.9832
  161PVA    O1027296   0.222   0.892   4.897 -0.1415  0.2155  0.2908
  161PVA    H5827297   0.256   0.974   4.937 -0.8476 -1.6742  5.4920
  161PVA    C3027298   0.406   0.939   4.756 -0.2942 -0.0946  0.5350
  161PVA    H5927299   0.475   0.972   4.834  2.0783  1.2539 -1.9815
  161PVA    H6027300   0.468   0.901   4.675 -0.4092  1.4934 -0.3437
  161PVA    C3127301   0.344   1.071   4.711 -0.0407  0.4293  0.5365
  161PVA    H6127302   0.260   1.101   4.774  2.3046  1.6265  3.3360
  161PVA    H6227303   0.306   1.026   4.618  2.9322 -2.1647  0.3835
  161PVA    C3227304   0.439   1.178   4.676 -0.8305 -0.1882  0.5814
  161PVA    H6327305   0.508   1.141   4.599 -1.6608  1.3582 -0.9813
  161PVA    O1127306   0.503   1.230   4.784 -0.8481  0.7343  0.3299
  161PVA    H6427307   0.525   1.319   4.750 -2.3956  1.0881  0.2057
  161PVA    C3327308   0.354   1.296   4.620 -0.8305 -1.1900  0.5426
  161PVA    H6527309   0.286   1.337   4.696 -1.6068  0.3324 -0.9073
  161PVA    H6627310   0.291   1.276   4.533 -0.2873  0.0634 -0.1622
  161PVA    C3427311   0.440   1.423   4.575  0.8593 -0.7299 -0.1175
  161PVA    H6727312   0.539   1.407   4.619  0.7958  0.0087  0.3235
  161PVA    H6827313   0.448   1.437   4.467 -2.2762 -0.4803 -0.4310
  161PVA    C3527314   0.408   1.570   4.642  0.5643  0.4066 -0.2944
  161PVA    H6927315   0.309   1.598   4.606 -0.3738 -3.0005 -0.7198
  161PVA    O1227316   0.502   1.661   4.588  0.3783 -0.4510 -0.5185
  161PVA    H7027317   0.443   1.735   4.565 -2.2711 -2.6351 -1.1454
  161PVA    C3627318   0.419   1.577   4.798  1.1494  0.3330 -1.0161
  161PVA    H7127319   0.342   1.508   4.834  0.7545  1.2701 -0.0143
  161PVA    H7227320   0.510   1.542   4.847 -0.3916  0.4171  2.1140
  161PVA    C3727321   0.395   1.710   4.873  1.0337  0.6506  0.7849
  161PVA    H7327322   0.293   1.744   4.852  0.1954 -2.1662 -0.2071
  161PVA    H7427323   0.468   1.785   4.840  0.6895 -1.0070 -4.7984
  161PVA    C3827324   0.397   1.704   5.037 -0.3831  0.2741  0.4314
  161PVA    H7527325   0.368   1.605   5.072  1.8321 -1.4122 -2.1147
  161PVA    O1327326   0.535   1.726   5.077  0.0250 -0.7472 -0.0610
  161PVA    H7627327   0.528   1.754   5.170  0.0035 -3.0020  0.6920
  161PVA    C3927328   0.308   1.818   5.102  1.0352 -0.0292 -0.5522
  161PVA    H7727329   0.235   1.859   5.032  2.2169  4.7237  0.6140
  161PVA    H7827330   0.380   1.896   5.129  1.7509 -0.4940 -1.0637
  161PVA    C4027331   0.223   1.779   5.233  0.4244  0.8926  0.7621
  161PVA    H7927332   0.171   1.685   5.210  0.9946  1.1710 -1.9913
  161PVA    H8027333   0.282   1.750   5.321 -1.3626  1.4736  2.2038
  161PVA    C4127334   0.123   1.886   5.277 -0.2663 -0.9561  0.3490
  161PVA    H8127335   0.123   1.969   5.205 -0.6108  1.1674  2.6876
  161PVA    O1427336   7.756   1.838   5.276  0.2973 -0.3757 -0.6310
  161PVA    H8227337   7.698   1.917   5.280  2.2387  1.0816  1.9410
  161PVA    C4227338   0.165   1.968   5.402  0.0601  0.0471 -1.3401
  161PVA    H8327339   0.192   1.901   5.485 -2.3594 -2.9698 -2.7662
  161PVA    H8427340   0.264   2.013   5.386  0.5532  0.0845  1.3399
  161PVA    C4327341   0.069   2.061   5.462 -0.0596  0.2643  0.0162
  161PVA    H8527342   0.026   1.990   5.533  1.8198  1.6340  2.7048
  161PVA    H8627343   7.741   2.097   5.417 -3.1407 -0.3068  5.1833
  161PVA    C4427344   0.139   2.174   5.545  0.5451 -0.6295  0.8232
  161PVA    H8727345   0.206   2.127   5.618  4.3596  0.5984 -1.5841
  161PVA    O1527346   0.242   2.237   5.471 -0.4474 -0.0038 -0.3366
  161PVA    H8827347   0.287   2.290   5.540  0.3545 -0.2045 -0.6980
  161PVA    C4527348   0.040   2.281   5.611  0.2289 -0.1134  0.3761
  161PVA    H8927349   7.703   2.245   5.596  1.1703 -2.9166  0.2012
  161PVA    H9027350   0.056   2.367   5.545  0.5856  0.1875  0.8467
  161PVA    C4627351   0.059   2.320   5.763 -0.3463 -0.1601 -0.8589
  161PVA    H9127352   0.168   2.316   5.776 -0.0907 -0.7877 -2.7964
  161PVA    H9227353   0.026   2.240   5.829 -2.0832  0.7975 -0.4925
  161PVA    C4727354   0.008   2.455   5.824 -1.0178 -0.2650 -0.5855
  161PVA    H9327355   0.080   2.534   5.802 -0.7628 -1.0014 -2.6485
  161PVA    O1627356   7.635   2.488   5.805  0.6095  0.9301  0.4827
  161PVA    H9427357   7.621   2.443   5.719  0.7605 -0.9072  1.3578
  161PVA    C4827358   0.018   2.427   5.981  0.4784  0.5962  0.7912
  161PVA    H9527359   7.728   2.337   6.008  0.5818  0.0630 -0.7069
  161PVA    H9627360   0.123   2.401   6.003  0.3203 -3.3152 -2.0163
  161PVA    C4927361   7.732   2.535   6.078 -1.2285  0.0081  0.1824
  161PVA    H9727362   7.629   2.569   6.064 -0.8053  2.3623  2.1719
  161PVA    H9827363   0.036   2.616   6.055 -1.0824 -0.6159 -1.8348
  161PVA    C5027364   7.745   2.488   6.226 -0.0317  0.1359  0.6929
  161PVA    H9927365   7.687   2.399   6.256 -2.1283  1.1988 -0.0483
  161PVA    O1727366   0.119   2.460   6.261  0.5561  0.4472  0.5283
  161PVA   H10027367   0.124   2.364   6.275 -0.7956  0.4817  1.4561
  161PVA    C5127368   7.695   2.588   6.337 -0.0895  0.3615  0.1398
  161PVA   H10127369   7.615   2.657   6.307 -0.2945  0.8044  1.6277
  161PVA   H10227370   0.016   2.634   6.385  0.1940 -2.1440  2.2266
  162PVA     C127371   0.471   1.699   7.056  0.1508  0.1957  0.1295
  162PVA     H127372   0.535   1.754   6.986  0.5380  1.3285  1.3263
  162PVA     H227373   0.533   1.633   7.118  1.7086  0.2267 -1.3025
  162PVA     C227374   0.401   1.805   7.142  0.4803  0.3784 -0.4087
  162PVA     H327375   0.328   1.749   7.202  1.8321 -0.0679  0.8936
  162PVA     O127376   0.344   1.883   7.043  0.2939  0.3107 -0.4161
  162PVA     H427377   0.319   1.822   6.972 -1.6546  3.9071 -3.1529
  162PVA     C327378   0.504   1.890   7.229 -0.6704 -0.6454 -0.5331
  162PVA     H527379   0.439   1.930   7.307 -1.1897 -1.0878 -0.7297
  162PVA     H627380   0.557   1.970   7.177 -0.9705  1.9343  2.8022
  162PVA     C427381   0.610   1.813   7.299 -0.6756  0.4329  0.5044
  162PVA     H727382   0.577   1.709   7.309 -3.1879  1.1918  0.9390
  162PVA     H827383   0.689   1.818   7.223 -2.0007  2.8605 -0.8526
  162PVA     C527384   0.689   1.872   7.422 -0.4458  0.2162 -0.8205
  162PVA     H927385   0.729   1.959   7.368 -4.6259  3.0045  0.1066
  162PVA     O227386   0.599   1.903   7.518  0.2494 -0.1785  0.0063
  162PVA    H1027387   0.563   1.817   7.546 -1.4319  0.4790 -0.0653
  162PVA     C627388   0.792   1.777   7.497  1.2791 -0.3163  1.4101
  162PVA    H1127389   0.751   1.731   7.588 -2.1632 -1.5788 -0.5960
  162PVA    H1227390   0.821   1.699   7.425 -1.0336  0.9963 -1.1415
  162PVA     C727391   0.915   1.863   7.538  0.5920 -0.1087 -0.8227
  162PVA    H1327392   0.885   1.941   7.609  4.0821  2.1872 -1.6424
  162PVA    H1427393   0.955   1.911   7.448 -0.9506  0.0732 -1.4446
  162PVA     C827394   1.044   1.783   7.590  1.0635  0.5451 -0.1292
  162PVA    H1527395   1.017   1.734   7.685  1.7345  3.1223  1.5266
  162PVA     O327396   1.092   1.690   7.490 -0.0934 -0.8105 -0.5736
  162PVA    H1627397   1.162   1.730   7.437 -0.3793  0.8964  0.2645
  162PVA     C927398   1.157   1.882   7.622  0.2537  0.6630 -0.4232
  162PVA    H1727399   1.175   1.953   7.541 -0.2224  0.0958 -1.0323
  162PVA    H1827400   1.137   1.947   7.708  3.9497  0.1626  1.0084
  162PVA    C1027401   1.292   1.823   7.660  0.1913 -0.1364 -0.4085
  162PVA    H1927402   1.280   1.738   7.728 -0.2231  0.8031  0.7264
  162PVA    H2027403   1.328   1.773   7.569  0.2231  2.4146 -1.8911
  162PVA    C1127404   1.405   1.928   7.684 -0.1477  0.1164  0.2472
  162PVA    H2127405   1.500   1.875   7.696 -0.1174 -0.1474 -0.9994
  162PVA     O427406   1.415   2.039   7.593 -0.0514 -0.1102  0.2598
  162PVA    H2227407   1.338   2.098   7.600 -1.6617 -1.9256 -1.0323
  162PVA    C1227408   1.390   2.006   7.821  0.1143 -0.5542 -0.4174
  162PVA    H2327409   1.289   2.048   7.826  2.2573  5.6185  0.6307
  162PVA    H2427410   1.443   2.101   7.802 -0.6578  0.1037  0.6368
  162PVA    C1327411   1.439   1.948   7.952  0.2996  1.1188  0.1453
  162PVA    H2527412   1.413   1.841   7.951  3.2902  0.2927  1.1979
  162PVA    H2627413   1.548   1.949   7.957  0.2562  1.1111  1.6391
  162PVA    C1427414   1.378   1.993   8.084  0.4300 -1.4137 -0.4394
  162PVA    H2727415   1.276   2.009   8.047 -0.1065  1.1493  1.8324
  162PVA     O527416   1.445   2.115   0.007 -0.8683 -0.5474  0.6218
  162PVA    H2827417   1.380   2.185   0.026 -0.1361  0.4598 -0.4969
  162PVA    C1527418   1.385   1.893   0.101  0.8897  0.6961  0.0738
  162PVA    H2927419   1.491   1.888   0.126  1.2909 -5.1207 -1.3340
  162PVA    H3027420   1.353   1.793   0.069  1.8036  1.0898 -2.3201
  162PVA    C1627421   1.284   1.949   0.207  0.9307  0.7541  0.5522
  162PVA    H3127422   1.320   2.050   0.229  4.7028 -1.0692  4.1893
  162PVA    H3227423   1.184   1.933   0.167  1.7655 -1.1958 -0.9231
  162PVA    C1727424   1.302   1.867   0.340 -0.3732 -0.5989  0.3716
  162PVA    H3327425   1.411   1.873   0.346 -0.3032  2.1798 -1.6323
  162PVA     O627426   1.263   1.734   0.330 -0.0397  0.1713  0.0277
  162PVA    H3427427   1.270   1.680   0.411 -2.8536 -0.8119 -0.2791
  162PVA    C1827428   1.215   1.931   0.445 -0.4954 -1.2891 -0.4251
  162PVA    H3527429   1.110   1.930   0.412 -0.4475 -3.7580 -0.6530
  162PVA    H3627430   1.249   2.035   0.454 -1.8569 -0.9522  1.5847
  162PVA    C1927431   1.222   1.876   0.587  0.2741 -0.6979  0.4150
  162PVA    H3727432   1.155   1.790   0.601  0.7351 -1.1916 -0.3589
  162PVA    H3827433   1.325   1.841   0.599  1.5089  2.4760  0.0031
  162PVA    C2027434   1.199   1.978   0.711  1.0593  0.1962 -0.3381
  162PVA    H3927435   1.221   1.913   0.796 -2.1927 -0.6833 -0.0349
  162PVA     O727436   1.050   2.003   0.707 -0.5291 -1.1935 -1.4144
  162PVA    H4027437   1.004   1.930   0.662 -4.5262 -0.7334  1.4016
  162PVA    C2127438   1.287   2.105   0.714 -0.4094 -0.2215 -0.1270
  162PVA    H4127439   1.295   2.157   0.618  1.7729  2.6546  1.4392
  162PVA    H4227440   1.389   2.072   0.737 -0.7560 -2.0478 -1.0469
  162PVA    C2227441   1.233   2.212   0.821 -0.5443 -0.0801 -0.7190
  162PVA    H4327442   1.146   2.267   0.784  0.0780  4.0704  3.1281
  162PVA    H4427443   1.191   2.145   0.898  0.5858 -0.7666 -0.6682
  162PVA    C2327444   1.361   2.292   0.883  0.4971  1.1487  0.1694
  162PVA    H4527445   1.423   2.218   0.935  2.4521  0.4209 -2.9277
  162PVA     O827446   1.448   2.356   0.782 -1.2635 -0.0668 -0.1313
  162PVA    H4627447   1.521   2.401   0.829 -0.5399  0.1151 -1.3891
  162PVA    C2427448   1.311   2.387   0.992  0.3382  0.3442 -0.0704
  162PVA    H4727449   1.257   2.324   1.064  0.9115 -0.1370 -0.0601
  162PVA    H4827450   1.386   2.405   1.069 -2.0597 -1.5065  2.9373
  162PVA    C2527451   1.216   2.498   0.946 -0.7968  0.4991  1.4414
  162PVA    H4927452   1.138   2.469   0.874  1.9547  2.1325 -2.5383
  162PVA    H5027453   1.283   2.549   0.876 -2.5001 -0.2279 -0.8181
  162PVA    C2627454   1.164   2.603   1.052 -0.0920  0.7306 -0.0560
  162PVA    H5127455   1.165   2.699   0.998  2.0387  0.4293 -0.6149
  162PVA     O927456   1.242   2.599   1.173  0.2829 -0.2528 -0.5503
  162PVA    H5227457   1.176   2.569   1.237  2.1592 -0.6441  1.3289
  162PVA    C2727458   1.019   2.563   1.089  0.0811  1.0249  0.3688
  162PVA    H5327459   1.041   2.473   1.147 -0.3747  3.0421  3.9826
  162PVA    H5427460   0.988   2.616   1.180  2.2525  0.4958  1.4914
  162PVA    C2827461   0.904   2.541   0.997  1.1024 -0.2024 -0.0564
  162PVA    H5527462   0.917   2.599   0.904  1.9094 -0.7913 -0.3223
  162PVA    H5627463   0.825   2.589   1.057  2.1359  1.1851  0.2303
  162PVA    C2927464   0.841   2.399   0.989 -1.1063  0.7645 -0.0199
  162PVA    H5727465   0.759   2.397   1.062 -1.7422  2.2155 -0.6554
  162PVA    O1027466   0.927   2.282   1.025 -0.4979 -0.5219 -0.1902
  162PVA    H5827467   0.988   2.259   0.953 -1.5791 -1.3806 -0.8584
  162PVA    C3027468   0.765   2.362   0.854 -0.0276 -0.1435  0.1440
  162PVA    H5927469   0.737   2.259   0.876 -1.9123 -0.0995 -1.6700
  162PVA    H6027470   0.674   2.420   0.834  1.6303  2.5580 -0.1127
  162PVA    C3127471   0.845   2.389   0.731  0.4847 -0.0993 -0.0515
  162PVA    H6127472   0.952   2.367   0.745  0.2444  0.6754  4.5993
  162PVA    H6227473   0.833   2.494   0.701 -0.3494  0.2385  1.3595
  162PVA    C3227474   0.801   2.293   0.610  0.6094 -0.1633 -0.7338
  162PVA    H6327475   0.699   2.323   0.583 -0.9691 -1.9286  2.6695
  162PVA    O1127476   0.785   2.160   0.658 -1.3316 -0.1313  1.2274
  162PVA    H6427477   0.864   2.143   0.712 -0.2888  0.8063  0.0366
  162PVA    C3327478   0.880   2.312   0.479  0.2308  0.2573 -0.0281
  162PVA    H6527479   0.797   2.310   0.407 -1.0076  2.4059  1.2216
  162PVA    H6627480   0.925   2.411   0.465 -0.0567  0.3734 -0.1337
  162PVA    C3427481   0.985   2.205   0.447 -1.0464 -1.0573 -0.7919
  162PVA    H6727482   0.946   2.103   0.456 -0.7378 -0.9958  2.0178
  162PVA    H6827483   1.050   2.224   0.533 -2.4740  0.7915 -0.0572
  162PVA    C3527484   1.065   2.215   0.318 -0.4438  0.7219  0.3029
  162PVA    H6927485   1.156   2.161   0.346  0.9706  2.1235 -1.3803
  162PVA    O1227486   1.095   2.349   0.291 -0.3478 -0.6973 -1.0869
  162PVA    H7027487   1.138   2.375   0.375 -1.4048 -1.5760 -0.2464
  162PVA    C3627488   0.986   2.158   0.197 -1.2277  0.3903 -0.9278
  162PVA    H7127489   0.991   2.049   0.208  0.6103  0.6159  1.2848
  162PVA    H7227490   0.881   2.173   0.222 -1.3337 -3.4943  1.8071
  162PVA    C3727491   1.037   2.192   0.059 -0.4506 -0.2739 -1.2358
  162PVA    H7327492   1.136   2.146   0.048 -0.7422 -0.6385 -2.4752
  162PVA    H7427493   1.040   2.299   0.033  1.0457  0.6540  2.1449
  162PVA    C3827494   0.939   2.126   8.057 -0.3177 -0.6746 -1.2483
  162PVA    H7527495   0.874   2.053   0.009  0.0074  0.0524  0.3162
  162PVA    O1327496   1.021   2.046   7.972 -0.7968  0.0458  0.1316
  162PVA    H7627497   1.067   2.111   7.916 -1.4817 -1.0315 -1.7403
  162PVA    C3927498   0.847   2.231   7.980  0.1390 -0.4032  0.0875
  162PVA    H7727499   0.909   2.295   7.916 -2.9347  0.5990 -2.1527
  162PVA    H7827500   0.807   2.287   8.065  1.0520 -2.7937  2.2278
  162PVA    C4027501   0.746   2.157   7.887  0.4150  0.1771 -0.4459
  162PVA    H7927502   0.792   2.074   7.831 -0.9588  0.6356 -2.3665
  162PVA    H8027503   0.690   2.092   7.954 -0.3523  2.2178  0.9741
  162PVA    C4127504   0.670   2.246   7.798  0.9075 -1.1805  0.2527
  162PVA    H8127505   0.743   2.323   7.769  0.7828 -1.4860 -0.9543
  162PVA    O1427506   0.564   2.316   7.864  0.5462 -0.2247  0.6311
  162PVA    H8227507   0.542   2.395   7.812 -0.5595 -2.4285 -2.6068
  162PVA    C4227508   0.613   2.177   7.669  0.1001 -0.5272 -0.1730
  162PVA    H8327509   0.551   2.094   7.704 -0.8113  0.4145  0.4860
  162PVA    H8427510   0.691   2.130   7.607 -2.4011 -0.5042 -3.5895
  162PVA    C4327511   0.515   2.266   7.576 -0.6328  0.2948  0.2491
  162PVA    H8527512   0.556   2.367   7.563  1.6732 -0.8443 -2.4323
  162PVA    H8627513   0.426   2.258   7.639 -0.5146 -3.6875  0.1655
  162PVA    C4427514   0.475   2.188   7.445 -0.7702 -0.0552 -0.1768
  162PVA    H8727515   0.418   2.101   7.481 -0.6191 -0.1845 -0.2471
  162PVA    O1527516   0.602   2.156   7.392 -0.0581  0.4408  0.1115
  162PVA    H8827517   0.598   2.059   7.395  0.9522  0.3335  4.3538
  162PVA    C4527518   0.398   2.272   7.336 -0.1984  0.3502 -0.8191
  162PVA    H8927519   0.307   2.313   7.380 -1.6617 -0.8573 -2.5479
  162PVA    H9027520   0.463   2.360   7.330 -1.0115  1.1580  1.2503
  162PVA    C4627521   0.375   2.207   7.191 -0.3937 -0.3714 -0.2421
  162PVA    H9127522   0.350   2.102   7.210 -0.8546  0.1191  2.1252
  162PVA    H9227523   0.473   2.206   7.141 -1.3256 -2.5188 -2.2268
  162PVA    C4727524   0.274   2.295   7.102  0.1573  0.0726  1.6293
  162PVA    H9327525   0.186   2.315   7.163 -1.6251  0.2227 -0.8441
  162PVA    O1627526   0.339   2.426   7.081  0.5874  0.3534 -0.0372
  162PVA    H9427527   0.396   2.450   7.156 -1.5265  3.7029  0.6736
  162PVA    C4827528   0.211   2.223   6.975  0.8391 -0.3013  0.5738
  162PVA    H9527529   0.290   2.232   6.899 -0.4677  1.5696 -0.6359
  162PVA    H9627530   0.205   2.116   7.000 -3.0343 -0.5125 -0.5950
  162PVA    C4927531   0.080   2.303   6.954  0.6224 -0.4966 -0.0033
  162PVA    H9727532   0.100   2.410   6.973 -1.6269  0.2015 -1.1324
  162PVA    H9827533   0.003   2.264   7.022 -0.3216 -0.6490 -1.1306
  162PVA    C5027534   0.029   2.279   6.810  0.7953 -0.7119 -0.8415
  162PVA    H9927535   0.083   2.343   6.739 -0.5571  1.0962 -0.3287
  162PVA    O1727536   0.068   2.150   6.754 -0.0142 -0.8837 -0.7619
  162PVA   H10027537   0.145   2.180   6.702 -0.0738  1.0966  0.1703
  162PVA    C5127538   7.647   2.320   6.804 -0.1854 -0.1037  0.1603
  162PVA   H10127539   7.592   2.230   6.775 -1.1854  1.1745 -2.2270
  162PVA   H10227540   7.613   2.356   6.902  1.2923 -0.3183  0.7767
  163PVA     C127541   0.411   1.338   6.690  0.2765 -0.1144 -0.3699
  163PVA     H127542   0.505   1.303   6.735 -2.1743 -2.9794  3.0756
  163PVA     H227543   0.454   1.397   6.608  0.8651 -2.6345 -2.0012
  163PVA     C227544   0.331   1.212   6.628  0.2005  0.4897  0.3029
  163PVA     H327545   0.321   1.143   6.712 -1.1492 -1.2721 -1.2234
  163PVA     O127546   0.199   1.235   6.575 -1.0374  0.1019 -0.6907
  163PVA     H427547   0.218   1.286   6.495  0.0278  3.9779  1.7350
  163PVA     C327548   0.410   1.141   6.511 -0.0813  0.1927 -0.2169
  163PVA     H527549   0.505   1.095   6.541  0.0114  0.2109 -0.4813
  163PVA     H627550   0.440   1.211   6.432  0.6799 -1.8806 -1.8399
  163PVA     C427551   0.328   1.022   6.444 -0.3233 -0.2495  1.0126
  163PVA     H727552   0.261   0.963   6.507  0.9935 -0.4862  2.2432
  163PVA     H827553   0.250   1.067   6.382 -0.0051 -1.3338 -0.2074
  163PVA     C527554   0.416   0.945   6.345 -0.4542  0.9310  0.3515
  163PVA     H927555   0.374   0.844   6.338  0.5516  0.4943  0.4103
  163PVA     O227556   0.539   0.924   6.399 -0.6992  0.0956  0.5284
  163PVA    H1027557   0.593   0.983   6.343 -2.3456  1.4100  0.2448
  163PVA     C627558   0.422   1.010   6.200  0.6967  0.3247  0.7775
  163PVA    H1127559   0.325   1.030   6.152  1.4777 -0.0534 -1.0152
  163PVA    H1227560   0.443   1.116   6.217  0.2132  0.7929 -1.2793
  163PVA     C727561   0.507   0.955   6.090 -0.1244 -0.5345  0.8596
  163PVA    H1327562   0.476   1.004   5.998  0.7700  4.8795  3.0799
  163PVA    H1427563   0.484   0.848   6.076 -1.1579 -0.0208 -1.9318
  163PVA     C827564   0.655   0.966   6.101 -0.0181  0.3254  0.5535
  163PVA    H1527565   0.696   0.898   6.176  0.2094  1.3544  1.3967
  163PVA     O327566   0.678   1.103   6.106  1.3246 -0.3198 -0.0756
  163PVA    H1627567   0.748   1.130   6.169  1.3542  2.4598 -1.1496
  163PVA     C927568   0.706   0.917   5.959  0.5150  1.1931 -0.6376
  163PVA    H1727569   0.660   0.975   5.878  2.7293 -2.2713 -4.7372
  163PVA    H1827570   0.685   0.811   5.943  2.7621  0.8924 -2.0937
  163PVA    C1027571   0.860   0.935   5.968 -0.6626 -0.1296 -0.2949
  163PVA    H1927572   0.881   1.042   5.967 -0.8735 -0.0449 -3.0584
  163PVA    H2027573   0.897   0.874   6.052 -3.4062 -1.2505  0.1955
  163PVA    C1127574   0.949   0.895   5.854 -0.1483  0.0497  1.1370
  163PVA    H2127575   0.920   0.962   5.772 -0.1544  1.2134  2.0590
  163PVA     O427576   0.920   0.768   5.827  0.2718  1.4328  1.0738
  163PVA    H2227577   0.859   0.767   5.750 -0.5595 -0.8650  1.6767
  163PVA    C1227578   1.108   0.904   5.874 -0.3555 -0.4160  1.9060
  163PVA    H2327579   1.160   0.875   5.781  2.1677  3.4286  1.8531
  163PVA    H2427580   1.143   1.008   5.880  1.3539 -0.6808 -1.2548
  163PVA    C1327581   1.163   0.826   5.994 -0.8501  0.8101 -0.7837
  163PVA    H2527582   1.104   0.839   6.086 -2.0144  2.0488 -1.6541
  163PVA    H2627583   1.266   0.862   6.003  0.9049 -4.0151  2.8526
  163PVA    C1427584   1.217   0.676   5.981  0.4736  1.3106  0.1929
  163PVA    H2727585   1.289   0.669   6.064 -0.8331 -0.8394  1.2443
  163PVA     O527586   1.296   0.648   5.850 -0.1440  0.8825  0.8427
  163PVA    H2827587   1.251   0.673   5.768  1.7954 -2.8734 -1.6491
  163PVA    C1527588   1.109   0.571   6.028  1.1446  0.6717  0.4325
  163PVA    H2927589   1.053   0.544   5.938  0.4955  0.7886  0.7928
  163PVA    H3027590   1.029   0.615   6.089 -0.5625 -2.6133  0.7894
  163PVA    C1627591   1.171   0.443   6.081 -0.5559  0.2649  0.3124
  163PVA    H3127592   1.249   0.426   6.006 -1.3124  4.1397 -1.5632
  163PVA    H3227593   1.212   0.443   6.183 -0.9363 -1.4874  0.5043
  163PVA    C1727594   1.096   0.320   6.050  1.0239 -0.0167 -0.6132
  163PVA    H3327595   1.078   0.317   5.941  2.5359 -4.4949 -0.9260
  163PVA     O627596   0.967   0.332   6.114  0.0251  0.0209  0.1034
  163PVA    H3427597   0.987   0.332   6.209 -1.6586 -3.1114  0.6058
  163PVA    C1827598   1.164   0.178   6.088  0.9381 -1.3497  0.8396
  163PVA    H3527599   1.268   0.204   6.067 -0.3293  4.0444 -0.3278
  163PVA    H3627600   1.143   0.163   6.195 -3.2146  0.9471  0.5567
  163PVA    C1927601   1.122   0.058   6.007 -0.2769  0.0529  0.0642
  163PVA    H3727602   1.162   0.062   5.904 -1.9819  1.1052 -0.6111
  163PVA    H3827603   1.013   0.064   5.995 -1.0346 -7.2261 -1.0295
  163PVA    C2027604   1.147   7.606   6.076 -0.0244 -0.3391  0.6799
  163PVA    H3927605   1.122   7.604   6.183  2.4439  0.5711  1.3368
  163PVA     O727606   1.073   7.499   6.024 -0.3828 -0.1905 -0.0690
  163PVA    H4027607   1.102   7.420   6.073  0.8404  0.6251  0.5900
  163PVA    C2127608   1.281   7.547   6.053 -0.2581  0.5611 -0.0807
  163PVA    H4127609   1.308   7.530   5.948 -1.3923 -1.4652 -0.0953
  163PVA    H4227610   1.281   7.446   6.095  3.5508  1.6552  3.1670
  163PVA    C2227611   1.396   7.605   6.132 -0.3307  0.2365  0.5636
  163PVA    H4327612   1.491   7.590   6.080 -1.1254 -0.8044 -0.6718
  163PVA    H4427613   1.371   0.026   6.144 -0.5953 -0.1313  6.7530
  163PVA    C2327614   1.412   7.548   6.271  0.4409 -0.5164 -0.5899
  163PVA    H4527615   1.312   7.550   6.314 -0.3144 -0.5266 -2.2795
  163PVA     O827616   1.501   7.632   6.349  0.2151 -0.0720  1.2996
  163PVA    H4627617   1.491   0.038   6.317 -3.7918 -0.4854  0.7770
  163PVA    C2427618   1.444   7.394   6.302  0.7899  1.0668  0.7331
  163PVA    H4727619   1.342   7.365   6.277  1.1670  0.4173 -0.1188
  163PVA    H4827620   1.452   7.367   6.409  2.5702  0.2234  0.4319
  163PVA    C2527621   1.554   7.312   6.223 -0.6562 -0.5249 -0.8849
  163PVA    H4927622   1.535   7.318   6.116 -1.3209 -2.0531 -0.8659
  163PVA    H5027623   1.569   7.204   6.231 -2.1678 -1.1216 -4.3688
  163PVA    C2627624   1.697   7.374   6.239  0.5104  0.3579 -0.7033
  163PVA    H5127625   1.761   7.334   6.159  1.0384  5.3614 -3.1917
  163PVA     O927626   1.709   7.511   6.216  0.1287 -0.1669  0.5742
  163PVA    H5227627   1.636   7.548   6.268  1.6915  1.9747  1.3793
  163PVA    C2727628   1.776   7.346   6.360  0.1352 -0.5964 -0.3525
  163PVA    H5327629   1.774   7.238   6.378 -0.2286 -1.1329 -3.1598
  163PVA    H5427630   1.725   7.378   6.451  2.8087 -1.4107  1.5856
  163PVA    C2827631   1.925   7.403   6.360 -0.2819 -0.6729 -0.2084
  163PVA    H5527632   1.972   7.355   6.446  0.2081  2.9623  1.7306
  163PVA    H5627633   1.975   7.359   6.272 -0.6182 -1.8315  0.1550
  163PVA    C2927634   1.953   7.564   6.369 -0.7764  0.3340  0.5093
  163PVA    H5727635   1.920   7.598   6.270  0.3394  0.6778  0.2368
  163PVA    O1027636   1.868   7.617   6.465 -0.2538  0.0341 -0.2195
  163PVA    H5827637   1.813   7.537   6.469 -0.1374 -0.0709 -0.6341
  163PVA    C3027638   2.097   7.600   6.400 -0.1517  0.5361  0.5698
  163PVA    H5927639   2.131   7.563   6.498  1.4301 -4.3456 -1.4964
  163PVA    H6027640   2.167   7.539   6.342  1.6579  0.6692  2.4914
  163PVA    C3127641   2.152   0.068   6.386  0.1356 -0.5765 -1.3193
  163PVA    H6127642   2.080   0.141   6.425  0.4683 -1.2929  0.7426
  163PVA    H6227643   2.146   0.109   6.284 -3.5301 -0.8654 -1.3469
  163PVA    C3227644   2.294   0.100   6.452 -0.3599  0.9473  1.7059
  163PVA    H6327645   2.280   0.059   6.553 -3.8340  0.7348  1.2546
  163PVA    O1127646   2.395   0.011   6.396 -1.0002 -0.6973  0.5882
  163PVA    H6427647   2.350   7.644   6.326  1.5173 -2.8532  0.3997
  163PVA    C3327648   2.350   0.243   6.468  0.2241  0.9799 -0.2618
  163PVA    H6527649   2.281   0.298   6.532 -1.8605 -1.8001  0.0732
  163PVA    H6627650   2.327   0.280   6.367 -3.1572  3.9540  1.3660
  163PVA    C3427651   2.497   0.273   6.501 -0.6825 -0.0007 -0.9802
  163PVA    H6727652   2.500   0.260   6.610  0.0718  1.6271 -0.7733
  163PVA    H6827653   2.571   0.197   6.472  0.4038  1.0299 -0.9589
  163PVA    C3527654   2.566   0.421   6.500  0.4929 -0.2983 -1.1737
  163PVA    H6927655   2.524   0.491   6.573 -0.9624  0.1518 -2.4115
  163PVA    O1227656   2.701   0.411   6.540 -0.2108  0.2693 -0.2353
  163PVA    H7027657   2.719   0.410   6.636 -0.4969 -0.1095 -0.1840
  163PVA    C3627658   2.544   0.497   6.370 -0.1559 -0.3607 -0.6550
  163PVA    H7127659   2.587   0.448   6.281 -0.5482 -2.2883  0.1737
  163PVA    H7227660   2.613   0.581   6.386 -0.3507 -0.0557 -1.3580
  163PVA    C3727661   2.406   0.544   6.322  1.5423 -0.7701 -0.7888
  163PVA    H7327662   2.338   0.586   6.398 -3.2271  0.3084 -5.0918
  163PVA    H7427663   2.345   0.460   6.287 -2.8849  1.5740  0.5369
  163PVA    C3827664   2.392   0.655   6.209 -0.0502  0.3276  0.7175
  163PVA    H7527665   2.286   0.665   6.183  0.3561 -4.3847 -4.8937
  163PVA    O1327666   2.451   0.771   6.255 -0.3033 -0.5107  0.6277
  163PVA    H7627667   2.417   0.848   6.206 -1.2764 -2.2056 -1.5234
  163PVA    C3927668   2.467   0.589   6.095 -0.6187 -0.1422 -1.2463
  163PVA    H7727669   2.432   0.486   6.082  2.2681 -1.0916 -2.3084
  163PVA    H7827670   2.576   0.589   6.101 -0.7024 -0.9200  1.6783
  163PVA    C4027671   2.438   0.669   5.974  0.8824  0.2549 -0.1440
  163PVA    H7927672   2.331   0.693   5.973  1.0595  1.2771  1.7359
  163PVA    H8027673   2.492   0.764   5.978  0.8159  0.2716  2.8122
  163PVA    C4127674   2.453   0.597   5.839 -0.3506  0.0259 -1.0880
  163PVA    H8127675   2.368   0.530   5.824 -1.3509  0.8961  0.4853
  163PVA    O1427676   2.587   0.542   5.844 -0.0937 -0.6002 -0.0968
  163PVA    H8227677   2.612   0.555   5.937 -0.8575  1.7317 -0.1720
  163PVA    C4227678   2.439   0.687   5.716 -0.0642  0.1483  0.1004
  163PVA    H8327679   2.412   0.781   5.765 -1.7661 -2.3784  4.5746
  163PVA    H8427680   2.343   0.663   5.669 -0.8922  0.4613  1.5611
  163PVA    C4327681   2.560   0.704   5.617  0.9246  0.6194 -0.5727
  163PVA    H8527682   2.528   0.712   5.512  2.0019  2.0310 -0.8278
  163PVA    H8627683   2.630   0.620   5.622 -0.7705 -0.8884 -1.0625
  163PVA    C4427684   2.650   0.831   5.635 -0.8501  0.1079  0.5770
  163PVA    H8727685   2.613   0.923   5.587  1.8245  1.7628  1.4877
  163PVA    O1527686   2.771   0.803   5.569 -0.0252 -0.0402  0.3661
  163PVA    H8827687   2.817   0.744   5.631  2.5635  0.7427 -0.6692
  163PVA    C4527688   2.692   0.859   5.781 -0.4129 -0.5675  0.1800
  163PVA    H8927689   2.598   0.858   5.837 -0.1316 -1.5032  0.6428
  163PVA    H9027690   2.761   0.783   5.819  2.3861  0.6774 -2.0459
  163PVA    C4627691   2.760   0.994   5.790 -0.1860  0.4278 -0.0717
  163PVA    H9127692   2.863   0.993   5.753  0.5954 -3.6995  1.5558
  163PVA    H9227693   2.702   1.065   5.731 -0.5961 -2.1643 -3.0207
  163PVA    C4727694   2.795   1.035   5.929  0.4899 -0.8868 -0.2119
  163PVA    H9327695   2.877   0.970   5.963  2.7904  0.8057 -2.1502
  163PVA    O1627696   2.696   1.042   6.019  0.9271 -1.0518 -0.1141
  163PVA    H9427697   2.685   0.956   6.064  0.5008  0.3680  2.7274
  163PVA    C4827698   2.845   1.185   5.926  0.4311  1.5151  0.5739
  163PVA    H9527699   2.770   1.262   5.946  0.0315  0.5543  3.2366
  163PVA    H9627700   2.892   1.201   6.024  0.0191  0.2751  0.9914
  163PVA    C4927701   2.951   1.239   5.826  0.0073  0.3233  0.3114
  163PVA    H9727702   2.885   1.274   5.746 -0.9763  0.3981  1.1412
  163PVA    H9827703   3.009   1.150   5.798 -2.0866 -0.3217 -2.3903
  163PVA    C5027704   3.041   1.358   5.871  1.5417  1.0561 -0.3581
  163PVA    H9927705   3.118   1.338   5.947  1.1766  1.8008  0.2151
  163PVA    O1727706   2.963   1.474   5.899  0.5845  1.0251  0.5889
  163PVA   H10027707   2.989   1.536   5.828 -2.0585 -0.5029 -1.9376
  163PVA    C5127708   3.134   1.410   5.742  0.2750 -0.0704  0.1765
  163PVA   H10127709   3.154   1.518   5.749 -0.0146 -0.0691  1.0504
  163PVA   H10227710   3.064   1.417   5.657  2.8611 -0.3802 -2.1227
  164PVA     C127711   7.277   2.084   6.601 -0.3637  0.3446 -0.1240
  164PVA     H127712   7.305   1.980   6.618 -0.8258  0.2354 -0.0240
  164PVA     H227713   7.175   2.084   6.558 -0.8380  1.6563  0.9353
  164PVA     C227714   7.364   2.139   6.486 -0.2926 -0.2291  0.2239
  164PVA     H327715   7.296   2.120   6.402 -2.1692  1.0606  1.3888
  164PVA     O127716   7.348   2.280   6.462  0.2258 -0.0860 -0.8386
  164PVA     H427717   7.361   2.319   6.550 -0.0893 -1.0665 -0.3524
  164PVA     C327718   7.513   2.087   6.486 -0.3844  0.4582  1.3411
  164PVA     H527719   7.576   2.144   6.555  0.4236  1.1509  0.0655
  164PVA     H627720   7.518   1.983   6.520 -1.7879  0.1227  0.6046
  164PVA     C427721   7.592   2.117   6.354  1.0956 -0.7139  0.5877
  164PVA     H727722   7.589   2.225   6.334 -0.0136 -0.2423  2.9089
  164PVA     H827723   7.540   2.072   6.268 -0.3673 -1.2073  1.6738
  164PVA     C527724   7.746   2.082   6.369 -0.1740  0.5861  0.0971
  164PVA     H927725   0.036   2.155   6.428 -1.0833  0.6918  0.8350
  164PVA     O227726   7.751   1.953   6.431 -1.2235  0.0367 -0.6849
  164PVA    H1027727   0.019   1.954   6.523 -5.0440  1.1709  0.9204
  164PVA     C627728   0.045   2.058   6.224 -0.1596  0.5373  0.1104
  164PVA    H1127729   0.105   1.966   6.232 -0.6967  0.3443  3.5962
  164PVA    H1227730   7.724   2.055   6.156 -1.5588 -1.4510  1.8551
  164PVA     C727731   0.145   2.158   6.178  0.1107 -1.2466  0.5162
  164PVA    H1327732   0.197   2.197   6.266 -0.0811 -1.2962  0.6526
  164PVA    H1427733   0.083   2.244   6.148 -0.8690 -2.8273 -2.4208
  164PVA     C827734   0.243   2.114   6.062  0.3054 -0.6436 -0.6027
  164PVA    H1527735   0.291   2.018   6.087 -0.0681 -1.7676 -3.7575
  164PVA     O327736   0.157   2.088   5.950 -0.0834 -0.5665  0.2921
  164PVA    H1627737   0.201   2.081   5.864 -3.0099  1.5914 -1.5957
  164PVA     C927738   0.356   2.218   6.009 -0.5882  1.3847 -0.4257
  164PVA    H1727739   0.382   2.302   6.075  4.6073  4.2049 -5.1316
  164PVA    H1827740   0.324   2.276   5.922  1.2195 -0.5696 -2.5396
  164PVA    C1027741   0.489   2.156   5.971  0.9305 -0.2717 -0.2318
  164PVA    H1927742   0.528   2.138   6.073 -3.0679  3.2234  2.2562
  164PVA    H2027743   0.490   2.048   5.949 -1.2591 -0.1191 -1.3732
  164PVA    C1127744   0.573   2.241   5.878 -0.2255 -0.2205 -0.2775
  164PVA    H2127745   0.573   2.346   5.910 -0.1025  0.7224 -3.1257
  164PVA     O427746   0.496   2.244   5.751 -0.1604 -0.7500 -0.0846
  164PVA    H2227747   0.436   2.168   5.737  0.3966 -1.3450  0.6751
  164PVA    C1227748   0.721   2.217   5.852  0.1059  0.6814  0.2495
  164PVA    H2327749   0.769   2.160   5.932 -2.1813 -1.4257  0.2305
  164PVA    H2427750   0.718   2.160   5.758  1.9629  2.1795 -0.7989
  164PVA    C1327751   0.795   2.343   5.823 -0.1865 -0.0152  0.1450
  164PVA    H2527752   0.762   2.433   5.876  0.7923 -0.3177  1.3094
  164PVA    H2627753   0.754   2.364   5.723 -1.1910 -2.9344 -0.1429
  164PVA    C1427754   0.950   2.341   5.805 -0.1962 -0.2148  0.3512
  164PVA    H2727755   0.951   2.276   5.716 -2.0762  1.9004 -1.3332
  164PVA     O527756   1.010   2.267   5.897  1.1233  0.6099 -0.8312
  164PVA    H2827757   1.106   2.268   5.880  1.1448  1.8372 -0.6843
  164PVA    C1527758   1.005   2.481   5.804  1.2218 -0.1550  0.5207
  164PVA    H2927759   0.935   2.548   5.753  2.8886  0.3738 -1.2277
  164PVA    H3027760   1.019   2.499   5.911  1.9416 -3.0215  0.9873
  164PVA    C1627761   1.132   2.495   5.729 -0.0851 -0.5003  0.9510
  164PVA    H3127762   1.141   2.448   5.631  1.9088 -2.0835  1.8288
  164PVA    H3227763   1.130   2.597   5.690  2.3834 -0.7994 -0.1361
  164PVA    C1727764   1.264   2.454   5.811  0.6790 -0.2743  0.0467
  164PVA    H3327765   1.261   2.478   5.918 -1.6672 -1.5879  0.3457
  164PVA     O627766   1.282   2.315   5.780  0.0139 -0.1342 -0.0254
  164PVA    H3427767   1.376   2.314   5.805 -0.1253  1.0766  0.6222
  164PVA    C1827768   1.388   2.530   5.765  0.6762  0.3965  0.8057
  164PVA    H3527769   1.409   2.476   5.671 -0.8773 -1.1011  1.2694
  164PVA    H3627770   1.366   2.636   5.754  1.6285  0.5349  0.1065
  164PVA    C1927771   1.513   2.518   5.860  0.1867  0.7962  0.0496
  164PVA    H3727772   1.467   2.472   5.949 -3.0884  1.1200 -1.3232
  164PVA    H3827773   1.557   2.614   5.890 -0.8686  1.1434  0.5516
  164PVA    C2027774   1.633   2.429   5.809  0.3865  0.6096  0.3372
  164PVA    H3927775   1.650   2.466   5.707 -0.8089 -2.9618 -1.3383
  164PVA     O727776   1.592   2.285   5.797 -0.0808 -0.4277  0.0986
  164PVA    H4027777   1.675   2.243   5.768  1.1428  2.3795 -0.8510
  164PVA    C2127778   1.763   2.443   5.890  0.1257 -0.2087  0.7596
  164PVA    H4127779   1.770   2.345   5.939  0.1574 -0.8331 -0.4686
  164PVA    H4227780   1.761   2.513   5.975  2.5980 -0.0547  0.7916
  164PVA    C2227781   1.899   2.446   5.812  0.1904  0.6421 -1.2426
  164PVA    H4327782   1.897   2.448   5.703 -2.0738  2.9719 -1.2350
  164PVA    H4427783   1.938   2.350   5.848 -0.2907  0.8325 -0.1776
  164PVA    C2327784   2.021   2.539   5.857  0.0578  1.0311  1.1417
  164PVA    H4527785   2.017   2.640   5.814 -0.5795  0.6839  0.3577
  164PVA     O827786   2.026   2.526   5.999 -0.5095 -0.9779  0.4605
  164PVA    H4627787   2.122   2.512   6.013 -0.1287  1.8839  1.3632
  164PVA    C2427788   2.151   2.485   5.805  0.6884 -0.0627  0.1307
  164PVA    H4727789   2.170   2.387   5.849 -3.4655 -0.7950  0.6971
  164PVA    H4827790   2.130   2.459   5.700 -1.2284  2.7313 -0.2945
  164PVA    C2527791   2.283   2.570   5.827 -0.5291 -1.3533 -0.3310
  164PVA    H4927792   2.292   2.573   5.937  0.6887  3.5600 -0.3281
  164PVA    H5027793   2.275   2.666   5.775 -4.6076 -1.0981  0.4454
  164PVA    C2627794   2.410   2.503   5.768  0.1700 -0.3659  0.1928
  164PVA    H5127795   2.405   2.402   5.812 -1.9086  0.7161  2.6842
  164PVA     O927796   2.395   2.503   5.622  0.6092  0.8082  0.4279
  164PVA    H5227797   2.488   2.499   5.592  0.6579  1.5869  0.4682
  164PVA    C2727798   2.547   2.568   5.792 -0.5843  0.3789  0.1367
  164PVA    H5327799   2.547   2.673   5.759 -2.0258  1.5299  3.3571
  164PVA    H5427800   2.564   2.566   5.900 -2.6133 -2.6949  0.5439
  164PVA    C2827801   2.666   2.483   5.734 -0.1924 -0.4149  0.2560
  164PVA    H5527802   2.640   2.421   5.648 -3.2531 -2.6036  2.5170
  164PVA    H5627803   2.690   2.410   5.813 -1.1570 -0.3270  0.6359
  164PVA    C2927804   2.789   2.564   5.689  0.0544 -0.4449 -0.2631
  164PVA    H5727805   2.753   2.628   5.607 -2.1876  0.6833  1.4586
  164PVA    O1027806   2.821   2.648   5.803 -0.0584  0.9041  0.1920
  164PVA    H5827807   2.850   2.725   5.751 -1.6405 -1.2756 -4.5055
  164PVA    C3027808   2.924   2.483   5.653  0.3359  0.9254  0.4386
  164PVA    H5927809   2.897   2.389   5.604  0.5137  1.3195 -0.4418
  164PVA    H6027810   2.950   2.447   5.753 -2.8462 -2.0057  0.4012
  164PVA    C3127811   3.045   2.552   5.569  0.1840  0.4097 -0.9239
  164PVA    H6127812   3.074   2.635   5.634  0.4945  0.0858 -0.6431
  164PVA    H6227813   3.015   2.588   5.470 -1.2998 -1.9395 -1.4138
  164PVA    C3227814   3.173   2.465   5.560  0.2073 -0.5727  0.2136
  164PVA    H6327815   3.183   2.428   5.663 -1.8129  2.3141  1.5482
  164PVA    O1127816   3.161   2.341   5.484 -0.4857  0.0934  0.1459
  164PVA    H6427817   3.123   2.351   5.395 -2.2191  0.8150  0.8981
  164PVA    C3327818   3.294   2.549   5.505 -1.9784  0.0088  0.1924
  164PVA    H6527819   3.290   2.566   5.397  1.2208  0.7473  0.0779
  164PVA    H6627820   3.317   2.647   5.550 -1.1368 -0.0497 -0.0943
  164PVA    C3427821   3.436   2.482   5.533  0.4765  0.6420 -0.1254
  164PVA    H6727822   3.438   2.437   5.633  0.8613 -0.0079 -0.4174
  164PVA    H6827823   3.456   2.394   5.470  1.3756 -0.1827  1.2636
  164PVA    C3527824   3.564   2.571   5.528 -0.3174 -0.1657  0.2150
  164PVA    H6927825   3.537   2.678   5.523  4.0292  1.2617  2.2542
  164PVA    O1227826   3.635   2.549   5.405  0.9150  0.4179  0.0381
  164PVA    H7027827   3.662   2.456   5.419  0.6278  0.1253 -1.2764
  164PVA    C3627828   3.651   2.564   5.657  0.2691  1.0353  0.7044
  164PVA    H7127829   3.585   2.606   5.735 -1.2158  2.3585 -1.1625
  164PVA    H7227830   3.657   2.455   5.668 -0.4457  1.0775  1.6460
  164PVA    C3727831   3.795   2.613   5.667  0.3047  1.6314 -0.6760
  164PVA    H7327832   3.783   2.722   5.671 -1.8941  1.3945  0.7983
  164PVA    H7427833   3.838   2.589   5.569 -0.0615  1.7565 -0.8701
  164PVA    C3827834   3.872   2.558   5.794  0.1417 -0.4277 -0.4338
  164PVA    H7527835   3.821   2.463   5.813  0.7208 -0.3399  1.8984
  164PVA    O1327836   3.866   2.654   5.898 -0.2603 -0.3638 -0.4486
  164PVA    H7627837   3.882   2.744   5.866  1.1201 -0.2240  0.5555
  164PVA    C3927838   4.026   2.534   5.777  0.4977  0.7389 -0.2301
  164PVA    H7727839   4.021   2.439   5.722  0.2780  2.2288 -3.0190
  164PVA    H7827840   4.052   2.622   5.716  0.8520  2.1818  1.9078
  164PVA    C4027841   4.124   2.500   5.896 -0.0405  0.3335 -0.8787
  164PVA    H7927842   4.154   2.581   5.964 -1.1769 -0.5010  0.6695
  164PVA    H8027843   4.079   2.432   5.969  5.4281 -0.3444  2.4694
  164PVA    C4127844   4.265   2.446   5.864 -1.1851 -0.5097 -0.0042
  164PVA    H8127845   4.338   2.485   5.936  1.7948  1.6404 -3.8326
  164PVA    O1427846   4.311   2.495   5.735  0.0035  1.0338  0.2524
  164PVA    H8227847   4.280   2.585   5.715  0.4656  1.6207  2.0073
  164PVA    C4227848   4.282   2.288   5.884 -0.3547 -0.8097 -0.3318
  164PVA    H8327849   4.380   2.292   5.933 -0.1912  3.1265 -0.6125
  164PVA    H8427850   4.216   2.258   5.967 -0.2240  1.1260  0.5405
  164PVA    C4327851   4.282   2.189   5.759  1.2459 -1.0640 -0.0888
  164PVA    H8527852   4.378   2.198   5.706  0.3946  1.5839 -1.3800
  164PVA    H8627853   4.196   2.216   5.697  2.4665  0.7431 -1.1088
  164PVA    C4427854   4.275   2.044   5.810  0.8166 -0.3065  0.9287
  164PVA    H8727855   4.187   2.046   5.876 -1.5131  2.1060 -1.9589
  164PVA    O1527856   4.381   2.002   5.895 -0.6206 -0.1829  0.7654
  164PVA    H8827857   4.427   2.077   5.938  0.4524  1.1698 -2.4454
  164PVA    C4527858   4.237   1.947   5.693  0.2674 -0.2663 -0.1624
  164PVA    H8927859   4.335   1.912   5.658  0.7419 -0.4994  1.3355
  164PVA    H9027860   4.203   1.991   5.598 -2.7736  0.0343  0.9590
  164PVA    C4627861   4.138   1.829   5.728 -0.7599 -0.9755 -0.3029
  164PVA    H9127862   4.104   1.838   5.832 -1.7862 -0.4351 -0.6777
  164PVA    H9227863   4.206   1.743   5.724  0.6873  0.1771 -2.6577
  164PVA    C4727864   4.024   1.811   5.618 -0.2985  0.5692 -0.7946
  164PVA    H9327865   4.010   1.895   5.549 -0.4361  0.4416 -0.9225
  164PVA    O1627866   4.091   1.719   5.531 -0.0645 -0.4737  1.3287
  164PVA    H9427867   4.161   1.775   5.492  0.3378 -2.8287 -1.6443
  164PVA    C4827868   3.888   1.753   5.668 -0.1783 -0.1943  0.0532
  164PVA    H9527869   3.906   1.650   5.702  3.1769 -0.2704 -1.5063
  164PVA    H9627870   3.846   1.805   5.754 -0.0060  2.5450 -1.3940
  164PVA    C4927871   3.781   1.745   5.552 -0.3482  0.3445 -0.3149
  164PVA    H9727872   3.803   1.682   5.465 -1.2668 -0.1815 -0.1824
  164PVA    H9827873   3.784   1.840   5.498  0.1280  1.8794  2.2410
  164PVA    C5027874   3.632   1.717   5.585 -0.7493  0.6593  1.0840
  164PVA    H9927875   3.586   1.714   5.485 -0.1277  1.9221  0.7525
  164PVA    O1727876   3.581   1.823   5.652  0.1619  0.8151  0.1478
  164PVA   H10027877   3.631   1.818   5.735  0.4596 -1.2746 -0.1267
  164PVA    C5127878   3.603   1.587   5.668  0.2478 -0.3040  1.7528
  164PVA   H10127879   3.674   1.511   5.634 -0.7059 -2.8541  4.9329
  164PVA   H10227880   3.638   1.590   5.772 -1.0070 -2.4788  2.2934
  165PVA     C127881   6.990   2.085   7.049  0.3381  0.8332 -0.9095
  165PVA     H127882   7.023   1.980   7.054  2.9865  1.5316 -2.0919
  165PVA     H227883   7.035   2.141   7.132 -1.2263 -2.0613  2.1299
  165PVA     C227884   6.842   2.072   7.097 -0.3756 -0.7362 -0.1281
  165PVA     H327885   6.819   2.177   7.075  3.8648 -0.0115 -2.1920
  165PVA     O127886   6.753   1.991   7.023  0.4827  0.1568  0.5904
  165PVA     H427887   6.748   2.036   6.937  2.5014  2.5482  1.6027
  165PVA     C327888   6.846   2.041   7.253  0.9444 -0.2060  0.1722
  165PVA     H527889   6.899   2.114   7.314  1.7323 -1.3832  0.9423
  165PVA     H627890   6.897   1.946   7.271 -3.4458 -2.1722  4.4427
  165PVA     C427891   6.706   2.009   7.313  0.2700  0.1744 -0.7893
  165PVA     H727892   6.649   2.102   7.301 -3.4875 -1.8165 -0.0734
  165PVA     H827893   6.647   1.940   7.251  1.7924 -1.7324 -0.2474
  165PVA     C527894   6.711   1.961   7.464  1.6012  0.5204  0.3704
  165PVA     H927895   6.739   1.854   7.458 -3.9282 -1.3585  2.1948
  165PVA     O227896   6.786   2.041   7.550  0.7542  0.0231  0.1387
  165PVA    H1027897   6.732   2.045   7.631  0.1126 -0.1468 -0.2797
  165PVA     C627898   6.567   1.953   7.521  0.1935 -0.4202  0.5869
  165PVA    H1127899   6.499   1.930   7.438  1.7880  1.0962 -1.2395
  165PVA    H1227900   6.521   2.045   7.560  1.6733  0.4333  0.3921
  165PVA     C727901   6.563   1.852   7.633 -0.4159  0.0935 -0.8675
  165PVA    H1327902   6.649   1.891   7.687 -0.7201 -0.1979 -0.1674
  165PVA    H1427903   6.599   1.754   7.600 -0.2456 -0.0062 -0.3881
  165PVA     C827904   6.431   1.816   7.714  0.5437  0.4897  0.0618
  165PVA    H1527905   6.395   1.909   7.761 -1.7386 -1.5071  2.5954
  165PVA     O327906   6.343   1.751   7.630  0.1608 -0.1191 -0.7026
  165PVA    H1627907   6.405   1.688   7.589  3.7411  1.3846  1.8779
  165PVA     C927908   6.436   1.708   7.825 -0.5860  0.4976  0.3541
  165PVA    H1727909   6.513   1.752   7.889  0.4710 -3.5994  2.2340
  165PVA    H1827910   6.461   1.610   7.783 -5.7276  0.6751 -4.4451
  165PVA    C1027911   6.327   1.698   7.924  0.5667  0.4191  0.1492
  165PVA    H1927912   6.329   1.774   8.003 -0.1548 -0.0397  0.6128
  165PVA    H2027913   6.243   1.737   7.864  1.2611  1.7384 -0.0037
  165PVA    C1127914   6.312   1.557   7.979  0.4260 -0.6904 -0.9149
  165PVA    H2127915   6.293   1.478   7.906 -6.3127 -5.2370  4.4501
  165PVA     O427916   6.410   1.558   8.080  0.1084  0.5882  0.3163
  165PVA    H2227917   6.370   1.493   0.042 -3.2014  2.1742  0.0614
  165PVA    C1227918   6.185   1.529   8.068  0.1173  0.7378 -0.2856
  165PVA    H2327919   6.185   1.603   0.052 -3.5499  0.3578  0.2407
  165PVA    H2427920   6.102   1.553   8.002  0.2337  0.1531 -0.6570
  165PVA    C1327921   6.155   1.388   0.049 -0.4110 -0.4066  1.4854
  165PVA    H2527922   6.229   1.379   0.130 -0.6477  2.9546  2.2461
  165PVA    H2627923   6.171   1.307   8.074 -2.4668  1.9813 -1.9575
  165PVA    C1427924   6.016   1.368   0.112 -0.3697 -1.5536 -0.7779
  165PVA    H2727925   5.957   1.402   0.026 -1.1888  0.5494  0.5366
  165PVA     O527926   6.008   1.463   0.222  0.1034 -0.5905 -0.4261
  165PVA    H2827927   5.926   1.513   0.206 -1.1239 -1.6242  2.0650
  165PVA    C1527928   5.984   1.219   0.138  1.9444  0.3260  0.7466
  165PVA    H2927929   6.057   1.192   0.215  2.1497  1.5057  0.9828
  165PVA    H3027930   6.008   1.172   0.042  2.1750  1.7361  0.0836
  165PVA    C1627931   5.835   1.182   0.173  0.1140  0.5547 -0.1371
  165PVA    H3127932   5.806   1.209   0.275 -0.6659  2.7957 -0.8883
  165PVA    H3227933   5.759   1.244   0.125 -0.8742  1.3726  2.3439
  165PVA    C1727934   5.807   1.031   0.168  0.1236 -0.9369  0.2813
  165PVA    H3327935   5.784   1.016   0.062  0.7020 -2.0173  0.2962
  165PVA     O627936   5.913   0.947   0.193  0.0414  0.0999  0.0063
  165PVA    H3427937   5.891   0.855   0.216 -1.7942 -0.0949 -2.1567
  165PVA    C1827938   5.685   0.990   0.238 -0.2492 -0.0698 -0.7345
  165PVA    H3527939   5.723   0.988   0.341  1.6597  1.9181 -1.3226
  165PVA    H3627940   5.617   1.076   0.228 -1.1962 -0.9757 -2.4701
  165PVA    C1927941   5.610   0.855   0.207  0.1413 -0.3537  0.0341
  165PVA    H3727942   5.678   0.788   0.154  1.9150  1.2454  0.1815
  165PVA    H3827943   5.525   0.874   0.139 -0.9774 -1.3987  1.0912
  165PVA    C2027944   5.571   0.793   0.346  0.1694  1.1046  0.8086
  165PVA    H3927945   5.550   0.887   0.400  3.8448  0.6974  3.4002
  165PVA     O727946   5.685   0.743   0.414 -0.5225 -0.9550  0.1269
  165PVA    H4027947   5.710   0.827   0.458 -1.9525  1.1707 -2.7889
  165PVA    C2127948   5.441   0.695   0.335 -0.1857 -0.4872 -0.4736
  165PVA    H4127949   5.473   0.610   0.273  2.6632  1.2984 -1.6576
  165PVA    H4227950   5.360   0.754   0.290  1.1837  2.0618  0.1841
  165PVA    C2227951   5.371   0.655   0.469 -0.2817 -0.4305  0.6289
  165PVA    H4327952   5.263   0.644   0.457 -0.9275  2.5383  2.5581
  165PVA    H4427953   5.375   0.741   0.538  1.4981  0.0360  0.0165
  165PVA    C2327954   5.442   0.556   0.557 -0.0003  0.6756  0.6280
  165PVA    H4527955   5.547   0.589   0.555  0.5578 -0.8980  1.9277
  165PVA     O827956   5.418   0.423   0.500 -0.3361 -0.1547  0.2841
  165PVA    H4627957   5.403   0.420   0.404  0.7734 -2.0322  0.1227
  165PVA    C2427958   5.367   0.545   0.701 -0.3265  0.9295 -0.6861
  165PVA    H4727959   5.316   0.631   0.746  3.2158  3.4236 -0.9202
  165PVA    H4827960   5.297   0.464   0.679  4.1035 -3.3914 -0.5592
  165PVA    C2527961   5.469   0.496   0.811 -0.4182 -0.7307 -0.1103
  165PVA    H4927962   5.564   0.540   0.778  0.9322 -2.8937  0.7408
  165PVA    H5027963   5.481   0.390   0.789  2.2069 -0.2727 -1.3031
  165PVA    C2627964   5.429   0.523   0.968  1.1099  0.8041  0.2783
  165PVA    H5127965   5.336   0.464   0.976  2.1855 -0.6915  2.5882
  165PVA     O927966   5.413   0.659   0.992 -0.3934 -0.2398 -0.7067
  165PVA    H5227967   5.364   0.683   1.072 -4.0338 -2.1641 -2.1107
  165PVA    C2727968   5.529   0.474   1.076  0.6009  0.7316  0.9053
  165PVA    H5327969   5.629   0.516   1.058  1.5777 -1.3311  1.2307
  165PVA    H5427970   5.552   0.368   1.059 -1.7777  0.3451 -0.3662
  165PVA    C2827971   5.481   0.490   1.227 -1.0013 -0.0389 -0.1020
  165PVA    H5527972   5.405   0.567   1.243 -1.2855 -0.2225 -0.5683
  165PVA    H5627973   5.422   0.397   1.233 -1.0389  0.0463  1.1405
  165PVA    C2927974   5.585   0.496   1.336  0.9234 -0.3913 -0.2484
  165PVA    H5727975   5.685   0.501   1.292  1.1742  0.3380  0.3915
  165PVA    O1027976   5.576   0.620   1.390  0.6386 -0.4198  0.4586
  165PVA    H5827977   5.482   0.615   1.415  0.7245 -1.8432  0.5394
  165PVA    C3027978   5.566   0.397   1.454  0.5845 -0.1278 -1.0910
  165PVA    H5927979   5.467   0.422   1.495  0.7272  0.3849 -1.0542
  165PVA    H6027980   5.565   0.288   1.439 -2.3832 -0.2432 -0.6432
  165PVA    C3127981   5.666   0.405   1.580  0.1601 -0.0059  0.1149
  165PVA    H6127982   5.693   0.509   1.603 -2.6381  0.1700  3.3769
  165PVA    H6227983   5.757   0.346   1.559 -0.0191  0.2888 -1.5981
  165PVA    C3227984   5.606   0.344   1.719 -1.2540  0.7826 -0.3222
  165PVA    H6327985   5.503   0.382   1.729 -0.5614  3.0212 -1.1104
  165PVA    O1127986   5.583   0.204   1.715  0.5085  0.5231 -0.1892
  165PVA    H6427987   5.525   0.173   1.787 -0.6141 -0.9541 -1.6283
  165PVA    C3327988   5.706   0.379   1.832 -0.5855  0.3165  0.2839
  165PVA    H6527989   5.739   0.483   1.827  1.2782 -0.2855 -0.9810
  165PVA    H6627990   5.793   0.313   1.822  1.1778  2.4193  1.0816
  165PVA    C3427991   5.654   0.315   1.962 -0.2195 -0.6723 -0.4872
  165PVA    H6727992   5.552   0.281   1.942  1.2203 -4.3017 -2.7438
  165PVA    H6827993   5.706   0.221   1.984  2.3202  0.1396 -2.5241
  165PVA    C3527994   5.672   0.410   2.089 -0.2878  0.6774  0.2250
  165PVA    H6927995   5.770   0.459   2.078  1.0530 -1.4995  1.6809
  165PVA    O1227996   5.573   0.505   2.096 -1.5088 -0.3153 -0.4319
  165PVA    H7027997   5.595   0.546   2.182  0.0372  3.2408 -2.2914
  165PVA    C3627998   5.687   0.329   2.224  0.5058  0.2388  0.2518
  165PVA    H7127999   5.588   0.300   2.263 -0.5688  0.4628 -2.1479
  165PVA    H7228000   5.758   0.250   2.197  0.6960  0.6023 -0.3356
  165PVA    C3728001   5.756   0.384   2.347  0.8536 -1.4044  0.9702
  165PVA    H7328002   5.711   0.482   2.367 -0.9670 -1.5123 -1.9557
  165PVA    H7428003   5.858   0.403   2.311 -0.5586  1.2551 -2.1305
  165PVA    C3828004   5.755   0.327   2.491  0.9084  1.3057  0.3662
  165PVA    H7528005   5.658   0.342   2.539 -0.5201  3.4757 -2.8606
  165PVA    O1328006   5.769   0.186   2.487  0.0141  0.2877  0.3437
  165PVA    H7628007   5.850   0.178   2.541 -0.5020 -1.4325  0.9163
  165PVA    C3928008   5.858   0.386   2.581  0.1866 -0.2914  0.5864
  165PVA    H7728009   5.855   0.493   2.559  0.1811  0.0309  2.0482
  165PVA    H7828010   5.958   0.349   2.555 -0.5499 -1.6192 -0.4410
  165PVA    C4028011   5.810   0.356   2.732 -0.3265 -0.5988 -0.7227
  165PVA    H7928012   5.703   0.375   2.740 -0.6137 -2.4641  0.6835
  165PVA    H8028013   5.835   0.249   2.743 -1.0619 -0.7674 -0.6400
  165PVA    C4128014   5.884   0.447   2.838  0.2983  0.4469  0.4999
  165PVA    H8128015   5.980   0.401   2.865 -0.3097 -0.6565  0.8342
  165PVA    O1428016   5.886   0.592   2.815  0.5639 -0.5720 -0.0763
  165PVA    H8228017   5.797   0.602   2.777 -0.4239 -2.4217  1.5383
  165PVA    C4228018   5.831   0.425   2.981  0.3217  0.5538 -0.1700
  165PVA    H8328019   5.922   0.424   3.043 -0.1018 -5.0998  0.8798
  165PVA    H8428020   5.805   0.319   2.993 -1.2816  1.0004  0.6297
  165PVA    C4328021   5.717   0.517   3.039 -0.8070  0.2085  0.1131
  165PVA    H8528022   5.729   0.626   3.029  2.7463 -0.1270 -0.3988
  165PVA    H8628023   5.627   0.487   2.984  0.2454 -2.9052 -0.0956
  165PVA    C4428024   5.682   0.498   3.189  0.0491 -0.2930 -0.3936
  165PVA    H8728025   5.776   0.517   3.241  2.0052 -1.7299 -3.1776
  165PVA    O1528026   5.664   0.362   3.195 -0.3114  0.0827 -0.9837
  165PVA    H8828027   5.589   0.327   3.143  1.0949 -7.2490  0.8437
  165PVA    C4528028   5.574   0.586   3.254  0.8169 -0.1880 -0.3847
  165PVA    H8928029   5.478   0.561   3.206  0.1143  0.7645  0.4719
  165PVA    H9028030   5.592   0.685   3.209 -2.1778  2.9039  4.3497
  165PVA    C4628031   5.579   0.597   3.416  0.1908  0.0272  0.9916
  165PVA    H9128032   5.496   0.532   3.446  0.9860 -0.6233  1.8467
  165PVA    H9228033   5.657   0.536   3.463 -1.6979 -0.8240  3.2145
  165PVA    C4728034   5.577   0.736   3.490 -0.0225  0.2214  0.9252
  165PVA    H9328035   5.584   0.729   3.599 -2.2277 -2.4232  0.9938
  165PVA    O1628036   5.672   0.823   3.437 -0.8069 -1.3810  0.0722
  165PVA    H9428037   5.756   0.774   3.432  1.3430  1.8717  0.6229
  165PVA    C4828038   5.441   0.810   3.475 -0.2088 -0.2850 -1.4673
  165PVA    H9528039   5.456   0.916   3.498 -2.0212 -0.5623  1.6539
  165PVA    H9628040   5.386   0.803   3.380  0.7376  1.2164 -2.1480
  165PVA    C4928041   5.342   0.746   3.583 -0.8092  0.4968  0.0344
  165PVA    H9728042   5.314   0.645   3.550 -1.0889  0.6976 -0.3502
  165PVA    H9828043   5.404   0.730   3.673  0.2010 -1.4266 -0.9352
  165PVA    C5028044   5.226   0.830   3.630  0.3866  0.1570 -0.8794
  165PVA    H9928045   5.179   0.863   3.537  0.7674 -2.0126 -1.9019
  165PVA    O1728046   5.267   0.944   3.702  0.0763  0.1888 -0.9792
  165PVA   H10028047   5.260   0.894   3.785  0.5568  0.2366 -0.9028
  165PVA    C5128048   5.110   0.765   3.718  1.0478  0.2548 -0.3200
  165PVA   H10128049   5.144   0.686   3.787  0.3357 -1.6271 -2.0111
  165PVA   H10228050   5.066   0.690   3.651  0.4094 -0.7025  1.1093
  166PVA     C128051   2.853   1.826   5.010 -0.1226  0.1793  0.3574
  166PVA     H128052   2.852   1.814   4.901 -2.4500 -0.1750  0.3586
  166PVA     H228053   2.761   1.885   4.994  0.1695  0.2060 -1.5233
  166PVA     C228054   2.962   1.911   5.081  1.8525 -0.5964 -1.1092
  166PVA     H328055   3.009   1.964   4.998 -0.3442 -1.6713 -3.1690
  166PVA     O128056   2.900   2.014   5.167  0.5140 -0.6712 -0.7080
  166PVA     H428057   2.836   1.959   5.215 -1.1008 -0.5359 -2.5458
  166PVA     C328058   3.092   1.844   5.133  0.1346  0.6065 -0.0420
  166PVA     H528059   3.139   1.784   5.054  0.5647  1.8017 -0.7305
  166PVA     H628060   3.058   1.780   5.215 -0.7479 -1.4202 -1.8865
  166PVA     C428061   3.206   1.936   5.172 -0.4211  0.1373  0.0891
  166PVA     H728062   3.211   2.015   5.096 -2.0124  2.0212  1.8094
  166PVA     H828063   3.185   2.000   5.259 -3.2507  0.6029 -0.8378
  166PVA     C528064   3.354   1.871   5.163 -0.0686 -0.5958 -0.0419
  166PVA     H928065   3.376   1.868   5.055  1.6811 -3.2489  0.3164
  166PVA     O228066   3.361   1.739   5.211  0.1592 -0.4295  0.5906
  166PVA    H1028067   3.442   1.755   5.262 -1.6607 -2.5255  4.5779
  166PVA     C628068   3.471   1.957   5.214 -0.3867  1.6161  1.2814
  166PVA    H1128069   3.448   2.055   5.172  1.7740  1.6518  0.0443
  166PVA    H1228070   3.452   1.955   5.322 -4.6437  0.0539  0.7063
  166PVA     C728071   3.603   1.920   5.159 -0.3977  0.0427  0.4214
  166PVA    H1328072   3.613   1.928   5.050 -1.2651  2.1991  0.4460
  166PVA    H1428073   3.627   1.813   5.168 -0.2267  0.2539  3.3910
  166PVA     C828074   3.720   1.992   5.225  0.1426  0.0290  0.8085
  166PVA    H1528075   3.720   1.948   5.325 -1.5966 -1.2600  0.2904
  166PVA     O328076   3.679   2.130   5.216 -0.1878  0.1366  0.2735
  166PVA    H1628077   3.728   2.185   5.279 -1.9662 -1.5909  3.4236
  166PVA     C928078   3.853   1.962   5.144  0.5290  0.2656 -1.3428
  166PVA    H1728079   3.851   1.987   5.038  0.0683 -0.3388 -1.4844
  166PVA    H1828080   3.865   1.853   5.158 -2.4645 -0.1490 -1.2843
  166PVA    C1028081   3.987   2.008   5.201  0.2702 -0.1772  0.6223
  166PVA    H1928082   4.002   2.112   5.170 -3.5218  0.7624  1.4710
  166PVA    H2028083   3.999   1.987   5.308 -0.1493 -3.0381  0.1994
  166PVA    C1128084   4.111   1.933   5.135  0.4692 -0.2872  0.6961
  166PVA    H2128085   4.078   1.920   5.031  0.8321 -0.4252  0.5978
  166PVA     O428086   4.131   1.804   5.185 -0.3924 -0.3625 -0.6876
  166PVA    H2228087   4.177   1.741   5.126 -2.5147 -0.2675 -2.5762
  166PVA    C1228088   4.239   2.017   5.118 -0.6589 -0.1880  0.3470
  166PVA    H2328089   4.315   1.958   5.065  1.2974 -0.6305  3.3619
  166PVA    H2428090   4.214   2.098   5.049  0.0441 -1.9326 -2.1128
  166PVA    C1328091   4.288   2.071   5.252 -0.2069 -0.3359 -0.5471
  166PVA    H2528092   4.199   2.107   5.305  3.2303  2.4061  4.1267
  166PVA    H2628093   4.357   2.150   5.220  2.7516 -2.9196 -0.9864
  166PVA    C1428094   4.368   1.965   5.334 -0.8688  0.5136  0.2794
  166PVA    H2728095   4.445   1.923   5.268  2.7783 -2.6700  5.7256
  166PVA     O528096   4.287   1.856   5.384  0.9618  0.2427  0.1838
  166PVA    H2828097   4.225   1.837   5.311 -0.1295  2.3424  0.4907
  166PVA    C1528098   4.458   2.029   5.443 -0.2038 -0.4025  0.9302
  166PVA    H2928099   4.400   2.078   5.522  0.3739 -1.7445  2.2529
  166PVA    H3028100   4.512   2.105   5.386 -3.4578  0.0778 -1.8708
  166PVA    C1628101   4.557   1.934   5.505 -0.1204 -0.1400  0.7984
  166PVA    H3128102   4.513   1.840   5.540 -2.3572  1.0757  1.5094
  166PVA    H3228103   4.615   1.899   5.419  1.7155  1.3025  1.3784
  166PVA    C1728104   4.659   2.001   5.606 -0.3393  0.0806 -0.4338
  166PVA    H3328105   4.623   2.052   5.696  5.2762  0.3147  2.0820
  166PVA     O628106   4.725   2.097   5.534  0.7030 -1.4602 -0.2376
  166PVA    H3428107   4.745   2.162   5.604 -0.8472 -0.7493 -0.4345
  166PVA    C1828108   4.760   1.898   5.666 -0.2118  0.8749  0.1141
  166PVA    H3528109   4.713   1.819   5.727 -1.3051  0.2147 -1.5161
  166PVA    H3628110   4.809   1.851   5.580 -1.6224 -0.5485  0.0337
  166PVA    C1928111   4.863   1.963   5.765  0.0890 -0.8492  0.2834
  166PVA    H3728112   4.797   2.001   5.844  2.1194 -0.7865  2.0530
  166PVA    H3828113   4.913   2.036   5.701 -0.2741 -1.9500 -1.3048
  166PVA    C2028114   4.970   1.881   5.842  1.0355  0.6030 -0.7054
  166PVA    H3928115   4.909   1.831   5.918 -0.6149 -3.8030 -4.4443
  166PVA     O728116   5.015   1.768   5.770 -1.2081  0.3940  0.6269
  166PVA    H4028117   4.938   1.721   5.735  0.1281 -1.3990 -0.0129
  166PVA    C2128118   5.080   1.966   5.909  0.1128 -0.8019 -0.6699
  166PVA    H4128119   5.037   2.051   5.963 -2.0574 -0.2465 -3.0933
  166PVA    H4228120   5.125   2.028   5.831 -1.0914  0.0239 -0.7369
  166PVA    C2228121   5.189   1.882   5.981 -1.3212  1.2120 -0.2201
  166PVA    H4328122   5.144   1.812   6.052  3.1600 -0.8445  0.9811
  166PVA    H4428123   5.224   1.805   5.911 -2.6091 -0.1450  0.5714
  166PVA    C2328124   5.325   1.950   6.023  0.2886 -0.3109  0.3210
  166PVA    H4528125   5.342   2.033   5.954 -1.3420  1.2847  1.7165
  166PVA     O828126   5.295   2.032   6.144  0.2635 -0.3349  0.7052
  166PVA    H4628127   5.378   2.061   6.186  1.8867 -2.3581 -0.8861
  166PVA    C2428128   5.459   1.873   6.068 -0.8059  0.2865  1.6381
  166PVA    H4728129   5.430   1.813   6.154  2.2993 -0.6067  2.1579
  166PVA    H4828130   5.479   1.807   5.982 -4.3645 -3.2528  3.1783
  166PVA    C2528131   5.591   1.963   6.081 -0.1487  0.2858  0.9696
  166PVA    H4928132   5.609   1.997   6.184  0.1458  3.3229  0.0114
  166PVA    H5028133   5.581   2.050   6.015  2.3148 -2.1731 -3.0507
  166PVA    C2628134   5.722   1.902   6.036 -0.3190  0.6482 -0.4747
  166PVA    H5128135   5.795   1.979   6.067 -1.5702  0.9339  2.0213
  166PVA     O928136   5.754   1.797   6.123 -0.5921 -0.1155 -0.4970
  166PVA    H5228137   5.730   1.710   6.086  2.6430  0.1877 -3.9641
  166PVA    C2728138   5.767   1.857   5.885 -0.4276 -1.1744  0.0490
  166PVA    H5328139   5.706   1.775   5.845 -0.8572 -1.2538  0.8472
  166PVA    H5428140   5.871   1.833   5.911 -0.8228  0.2792  3.5610
  166PVA    C2828141   5.765   1.980   5.787 -0.9960  0.0642 -0.1710
  166PVA    H5528142   5.668   2.031   5.778 -1.0308  0.2167  0.9315
  166PVA    H5628143   5.843   2.045   5.830  0.5325 -0.6897 -1.6804
  166PVA    C2928144   5.808   1.956   5.644 -0.6626  0.4531 -0.1892
  166PVA    H5728145   5.749   1.884   5.587  2.2925 -1.8534 -0.6077
  166PVA    O1028146   5.936   1.899   5.663 -0.0872  0.6521 -0.3453
  166PVA    H5828147   5.944   1.843   5.742  0.5712  1.3104  0.0741
  166PVA    C3028148   5.820   2.064   5.549  0.5936 -1.1620  0.1772
  166PVA    H5928149   5.820   2.155   5.609  3.4700 -2.0119  1.6238
  166PVA    H6028150   5.918   2.056   5.501  0.1152  1.5983 -1.4719
  166PVA    C3128151   5.726   2.053   5.424 -0.2550 -0.0110 -0.9753
  166PVA    H6128152   5.626   2.023   5.458  1.1240 -3.8645  0.3468
  166PVA    H6228153   5.762   1.960   5.378 -2.8459 -1.4680 -0.3090
  166PVA    C3228154   5.708   2.166   5.320 -0.2059  0.6868  0.8293
  166PVA    H6328155   5.807   2.193   5.280 -0.7731  1.0310 -0.3895
  166PVA    O1128156   5.664   2.274   5.397  0.6456 -0.1808  0.5364
  166PVA    H6428157   5.740   2.299   5.452 -0.0291 -0.8579  1.8561
  166PVA    C3328158   5.615   2.101   5.208 -1.0770 -0.0481 -0.9777
  166PVA    H6528159   5.687   2.031   5.165  3.6787  0.9517  4.2015
  166PVA    H6628160   5.596   2.181   5.135 -5.2155 -2.1826 -2.5570
  166PVA    C3428161   5.479   2.031   5.245  0.7426  0.5764  0.6724
  166PVA    H6728162   5.497   1.948   5.315  3.8195  0.0590 -0.5922
  166PVA    H6828163   5.414   2.101   5.298 -1.6565  0.7429 -2.2265
  166PVA    C3528164   5.404   1.972   5.124  0.8941  0.0533  0.5160
  166PVA    H6928165   5.483   1.912   5.077 -1.2868 -1.6845 -1.0855
  166PVA    O1228166   5.313   1.865   5.167 -0.7868  0.3097  1.0776
  166PVA    H7028167   5.225   1.905   5.179 -2.7558 -3.3523  0.3267
  166PVA    C3628168   5.333   2.065   5.014 -0.6882 -0.1001  0.1354
  166PVA    H7128169   5.267   2.140   5.059  1.4509  2.1713 -0.3365
  166PVA    H7228170   5.401   2.129   4.957 -3.3719  3.1346  0.3054
  166PVA    C3728171   5.234   1.996   4.917  0.6713 -0.2019  0.6507
  166PVA    H7328172   5.158   1.939   4.973  0.1995 -2.0633 -1.7223
  166PVA    H7428173   5.291   1.922   4.860  0.9725  0.3878  0.1820
  166PVA    C3828174   5.171   2.092   4.820  1.2184  0.2245  0.9079
  166PVA    H7528175   5.251   2.137   4.760  0.6631  1.4741  1.0649
  166PVA    O1328176   5.085   2.191   4.886  0.3467  0.0953  0.1532
  166PVA    H7628177   5.142   2.267   4.906  0.1998  0.1108  0.5129
  166PVA    C3928178   5.079   2.019   4.716 -0.0908  0.2863  0.4839
  166PVA    H7728179   5.007   2.092   4.677  2.2110  2.6015  0.2911
  166PVA    H7828180   5.028   1.930   4.756 -1.2659 -0.2900 -2.0956
  166PVA    C4028181   5.153   1.989   4.586  0.7069  0.7364 -1.0472
  166PVA    H7928182   5.209   2.083   4.577  3.1540 -0.2989  1.6692
  166PVA    H8028183   5.223   1.905   4.588  2.4449  2.1174  1.0494
  166PVA    C4128184   5.056   1.962   4.466  0.4839 -0.5449  0.7926
  166PVA    H8128185   4.993   2.047   4.437  2.7491  1.3354  1.0606
  166PVA    O1428186   4.973   1.855   4.497 -0.3539  0.8124  0.4720
  166PVA    H8228187   4.914   1.836   4.422  1.7188 -1.0548 -0.8411
  166PVA    C4228188   5.132   1.912   4.342 -0.1924  0.0687  0.6375
  166PVA    H8328189   5.218   1.980   4.327  0.6720 -0.8039  1.4932
  166PVA    H8428190   5.064   1.933   4.259 -0.1197  5.9548  1.5932
  166PVA    C4328191   5.185   1.762   4.335 -0.2371  0.3883 -0.1909
  166PVA    H8528192   5.118   1.691   4.386  0.1451  0.9399  1.1176
  166PVA    H8628193   5.280   1.759   4.389 -0.2751 -3.5072 -0.0896
  166PVA    C4428194   5.205   1.718   4.189  0.2553 -1.0282  0.1547
  166PVA    H8728195   5.109   1.694   4.143 -0.5788  0.8585  0.8067
  166PVA    O1528196   5.291   1.813   4.116  0.3933  0.5639  0.4434
  166PVA    H8828197   5.378   1.813   4.159 -0.4553  0.7636  2.2937
  166PVA    C4528198   5.293   1.587   4.195  0.0845  0.7624  0.8027
  166PVA    H8928199   5.383   1.611   4.252  1.4210  0.1105 -0.9386
  166PVA    H9028200   5.317   1.581   4.088 -3.4659  3.7624 -0.4144
  166PVA    C4628201   5.235   1.454   4.246  0.2963  1.1973  0.2342
  166PVA    H9128202   5.242   1.467   4.355 -0.3899  3.0867  0.0994
  166PVA    H9228203   5.126   1.449   4.236  0.0056  2.0531  2.4301
  166PVA    C4728204   5.313   1.330   4.199 -0.5384 -0.5293  0.7554
  166PVA    H9328205   5.331   1.342   4.091 -3.4202  0.0362  0.2585
  166PVA    O1628206   5.438   1.329   4.241 -0.0673 -0.3450 -0.1210
  166PVA    H9428207   5.472   1.248   4.284 -0.7364 -1.0583 -0.8876
  166PVA    C4828208   5.260   1.180   4.232  0.4614  0.7228  0.8790
  166PVA    H9528209   5.336   1.106   4.207 -3.3202 -2.2605 -3.4335
  166PVA    H9628210   5.246   1.193   4.340  0.3168  0.1554  0.9286
  166PVA    C4928211   5.134   1.120   4.165  0.7109  0.8998 -0.3980
  166PVA    H9728212   5.052   1.192   4.177 -2.7273 -2.8022  0.5402
  166PVA    H9828213   5.161   1.117   4.059 -1.3637  1.6373 -1.0023
  166PVA    C5028214   5.098   0.971   4.183  1.6965  0.7017 -1.0641
  166PVA    H9928215   5.164   0.900   4.132  0.4084 -0.0685 -1.6991
  166PVA    O1728216   5.126   0.944   4.318 -0.4133  0.4545 -0.1061
  166PVA   H10028217   5.126   0.849   4.337  3.0932  0.8436  3.0894
  166PVA    C5128218   4.950   0.931   4.163 -0.6177 -0.6252 -0.0888
  166PVA   H10128219   4.911   0.858   4.235 -5.9519 -0.6825 -2.5771
  166PVA   H10228220   4.889   1.013   4.201 -1.4490  0.0448 -2.6806
  167PVA     C128221   2.634   1.334   4.986 -0.4827 -1.2385 -0.3430
  167PVA     H128222   2.710   1.259   4.963  2.9193  1.7839  0.1528
  167PVA     H228223   2.644   1.386   4.890  0.8486  3.1391  1.9082
  167PVA     C228224   2.484   1.290   5.002  0.8648  0.2612 -0.0423
  167PVA     H328225   2.419   1.378   4.999  0.7392  0.1622 -0.2274
  167PVA     O128226   2.468   1.240   5.129  1.1640 -0.0478 -0.6854
  167PVA     H428227   2.453   1.145   5.116 -0.7336  0.2620 -1.0302
  167PVA     C328228   2.435   1.185   4.906 -0.2850  0.6466  0.2403
  167PVA     H528229   2.405   1.239   4.815 -2.8193 -0.2446  0.4677
  167PVA     H628230   2.519   1.128   4.865 -1.0876  1.2926 -2.5154
  167PVA     C428231   2.306   1.098   4.946 -0.6434  0.8727  0.0467
  167PVA     H728232   2.241   1.154   5.013  1.0422  1.2962  1.3972
  167PVA     H828233   2.238   1.063   4.867 -0.9878  0.1291  0.6684
  167PVA     C528234   2.340   0.964   5.022 -0.3935 -0.8084  0.3456
  167PVA     H928235   2.448   0.951   5.006 -0.1950  1.5558 -0.6953
  167PVA     O228236   2.306   0.973   5.152 -0.6672 -0.4989  0.2028
  167PVA    H1028237   2.250   0.893   5.157 -1.5019  0.1215  1.3618
  167PVA     C628238   2.252   0.843   4.975  0.2015 -0.0225 -0.3265
  167PVA    H1128239   2.149   0.879   4.989 -0.0492 -0.6273 -0.6093
  167PVA    H1228240   2.267   0.815   4.870 -0.2832  0.1183 -0.4353
  167PVA     C728241   2.259   0.712   5.074 -0.2498 -1.2981  0.7174
  167PVA    H1328242   2.165   0.715   5.129 -0.7271 -1.3059 -0.0862
  167PVA    H1428243   2.334   0.724   5.154  1.0963  1.3609 -0.8166
  167PVA     C828244   2.279   0.582   4.986  0.9918  0.0439  0.8274
  167PVA    H1528245   2.339   0.625   4.904 -2.5690  1.1105 -1.4191
  167PVA     O328246   2.153   0.561   4.917  0.1519 -0.0404  0.7062
  167PVA    H1628247   2.164   0.516   4.831 -0.9877 -5.5956  3.0794
  167PVA     C928248   2.336   0.455   5.055  0.3197 -0.2256 -0.1169
  167PVA    H1728249   2.305   0.430   5.158  3.7523 -1.4614  0.7535
  167PVA    H1828250   2.442   0.466   5.080  0.0270  1.7488  0.4184
  167PVA    C1028251   2.322   0.320   4.985  1.4379 -0.5357 -0.9205
  167PVA    H1928252   2.393   0.312   4.902  3.4992 -4.1618  0.9355
  167PVA    H2028253   2.219   0.287   4.963  0.1044  1.1437  2.1592
  167PVA    C1128254   2.364   0.205   5.074  0.4236  0.2588 -0.2785
  167PVA    H2128255   2.285   0.181   5.146  1.3596 -2.3112 -0.0187
  167PVA     O428256   2.473   0.239   5.149  0.0950 -0.0210  0.0706
  167PVA    H2228257   2.443   0.302   5.217  0.6355 -1.2034  1.4717
  167PVA    C1228258   2.394   0.074   4.985  0.5855  0.3820 -0.5920
  167PVA    H2328259   2.434   7.684   5.056  2.5961  0.2645 -1.7786
  167PVA    H2428260   2.470   0.099   4.910  3.4653 -2.0673  1.2507
  167PVA    C1328261   2.283   7.679   4.909 -0.8031 -0.8296 -0.7077
  167PVA    H2528262   2.253   0.070   4.835  1.7918  0.9883 -0.0443
  167PVA    H2628263   2.199   7.662   4.977 -0.8132 -1.2692 -0.8208
  167PVA    C1428264   2.320   7.535   4.859  0.6945 -0.4831  0.2163
  167PVA    H2728265   2.368   7.490   4.947 -0.0895  1.0924  1.4801
  167PVA     O528266   2.427   7.552   4.765 -0.7032 -0.1571 -0.1448
  167PVA    H2828267   2.410   7.514   4.677  1.8670  1.4742 -1.4821
  167PVA    C1528268   2.218   7.432   4.781  0.8175  0.4622  0.1429
  167PVA    H2928269   2.276   7.354   4.729  1.2144 -1.8820  3.7551
  167PVA    H3028270   2.171   7.487   4.698 -1.0439  0.1717  0.9730
  167PVA    C1628271   2.101   7.338   4.854  0.0152 -0.6304 -0.1379
  167PVA    H3128272   2.144   7.264   4.922 -0.0479 -2.4283 -1.9630
  167PVA    H3228273   2.050   7.401   4.928  2.1007 -1.9726  2.6334
  167PVA    C1728274   2.009   7.258   4.750  1.0564 -0.6838  0.8057
  167PVA    H3328275   1.999   7.318   4.659 -2.5702 -3.8306 -1.1719
  167PVA     O628276   2.065   7.142   4.705  0.5306  0.0407  0.6049
  167PVA    H3428277   2.093   7.106   4.791  0.9306 -0.5364  0.2368
  167PVA    C1828278   1.858   7.248   4.777  0.0101 -0.7968  0.0810
  167PVA    H3528279   1.821   7.323   4.848 -2.5800 -0.4718 -1.4770
  167PVA    H3628280   1.825   7.282   4.678  1.3581 -2.2657 -0.9200
  167PVA    C1928281   1.769   7.116   4.823 -1.0152 -0.3357 -0.2774
  167PVA    H3728282   1.831   7.063   4.896  0.3901 -1.6572 -2.3128
  167PVA    H3828283   1.740   7.065   4.730 -1.9121 -0.9855  0.3380
  167PVA    C2028284   1.624   7.158   4.875 -1.0685  0.3661  0.5500
  167PVA    H3928285   1.591   7.255   4.835  1.1931  1.1606  0.4744
  167PVA     O728286   1.637   7.151   5.011 -0.0006  0.3798  0.2751
  167PVA    H4028287   1.669   7.234   5.049  4.9548 -1.8069  1.6979
  167PVA    C2128288   1.516   7.040   4.828  1.4826  0.3155 -0.0697
  167PVA    H4128289   1.529   6.964   4.907 -0.3313  0.1144  0.0805
  167PVA    H4228290   1.555   6.986   4.741 -1.2794 -0.1922 -1.1080
  167PVA    C2228291   1.361   7.066   4.825  0.1785 -0.4857  0.1266
  167PVA    H4328292   1.311   6.991   4.888  0.3105 -1.3199 -0.7405
  167PVA    H4428293   1.328   7.163   4.862  1.8973  0.0652  0.2850
  167PVA    C2328294   1.301   7.052   4.690 -0.0363  0.0901 -1.2169
  167PVA    H4528295   1.388   7.013   4.636 -1.0693 -0.7980 -2.2966
  167PVA     O828296   1.222   6.931   4.680  0.3089 -0.1557  0.5636
  167PVA    H4628297   1.258   6.883   4.603  1.4795 -3.4375  2.9473
  167PVA    C2428298   1.238   7.185   4.626  0.7179  0.3147 -0.4144
  167PVA    H4728299   1.149   7.218   4.681  0.3332  0.1015 -0.8964
  167PVA    H4828300   1.300   7.275   4.627 -1.9161  2.2511 -0.1894
  167PVA    C2528301   1.181   7.169   4.486  1.2035 -0.7479 -0.1465
  167PVA    H4928302   1.093   7.104   4.492 -0.3677  1.2384 -0.3966
  167PVA    H5028303   1.259   7.101   4.450 -0.8539 -3.6534  0.5090
  167PVA    C2628304   1.175   7.292   4.389 -0.1346 -0.4496  0.1617
  167PVA    H5128305   1.238   7.370   4.434  1.9162  0.7844 -4.3346
  167PVA     O928306   1.034   7.331   4.394 -0.0668 -0.6232 -0.3504
  167PVA    H5228307   1.020   7.419   4.356 -0.1865 -0.0890  0.8851
  167PVA    C2728308   1.205   7.258   4.241 -0.8326 -0.1554  0.0384
  167PVA    H5328309   1.112   7.256   4.184 -1.8910 -4.7924  1.5028
  167PVA    H5428310   1.224   7.150   4.235  1.9735  0.2828 -5.3343
  167PVA    C2828311   1.319   7.329   4.169 -1.3091 -0.0327  0.4704
  167PVA    H5528312   1.282   7.430   4.151 -0.1666  0.4399  0.6871
  167PVA    H5628313   1.407   7.341   4.234 -1.3846 -0.4729  0.6628
  167PVA    C2928314   1.376   7.275   4.022  0.2367  0.1019 -0.7832
  167PVA    H5728315   1.320   7.183   4.003  0.9512 -0.5078 -0.0363
  167PVA    O1028316   1.354   7.366   3.915 -0.0184  0.4557  0.8134
  167PVA    H5828317   1.423   7.434   3.915  0.7404 -0.2916  1.3463
  167PVA    C3028318   1.521   7.221   4.017  0.1144  0.3437  0.6233
  167PVA    H5928319   1.562   7.221   4.119  1.0797 -1.3697  0.2866
  167PVA    H6028320   1.579   7.298   3.965 -1.0854 -0.1795 -1.6431
  167PVA    C3128321   1.568   7.082   3.946  0.0347  0.4220 -0.4762
  167PVA    H6128322   1.478   7.036   3.903 -2.9539  4.8534  0.3610
  167PVA    H6228323   1.631   7.108   3.860  1.7367  0.9223  0.8679
  167PVA    C3228324   1.656   6.977   4.032  0.1914 -0.2692 -0.3049
  167PVA    H6328325   1.585   6.947   4.110  0.0467 -2.6592 -1.2663
  167PVA    O1128326   1.762   7.056   4.092 -0.2844  0.2426  0.6025
  167PVA    H6428327   1.778   6.995   4.166 -2.3493 -1.9052 -0.5835
  167PVA    C3328328   1.708   6.859   3.942 -0.6427 -0.0146 -0.4247
  167PVA    H6528329   1.747   6.898   3.847 -0.4102 -3.8530 -2.0627
  167PVA    H6628330   1.631   6.792   3.902 -0.8740 -0.1338  0.2026
  167PVA    C3428331   1.809   6.760   4.015  0.6490  0.0508 -1.2773
  167PVA    H6728332   1.881   6.833   4.056 -0.7738 -1.1670  4.2729
  167PVA    H6828333   1.853   6.694   3.940  3.0706  1.0816 -0.8695
  167PVA    C3528334   1.741   6.669   4.118 -0.4653 -0.3544 -0.3440
  167PVA    H6928335   1.637   6.652   4.086 -2.2116  4.1750  2.0343
  167PVA    O1228336   1.747   6.730   4.247 -0.0252 -0.4272 -0.0485
  167PVA    H7028337   1.731   6.658   4.310 -3.9620  1.4952  1.4991
  167PVA    C3628338   1.803   6.541   4.146  0.4546 -0.0715 -0.0465
  167PVA    H7128339   1.893   6.557   4.206  0.4757  2.0798 -0.5594
  167PVA    H7228340   1.838   6.482   4.060  1.6658 -4.7896  3.3232
  167PVA    C3728341   1.708   6.456   4.238 -0.4220  0.6504  1.5253
  167PVA    H7328342   1.606   6.440   4.201 -0.4744  0.3074  1.8174
  167PVA    H7428343   1.712   6.515   4.330  1.7038  1.1981  1.1416
  167PVA    C3828344   1.780   6.326   4.277  0.4347 -0.3926 -0.1924
  167PVA    H7528345   1.812   6.265   4.192 -3.1339 -3.5547  0.4145
  167PVA    O1328346   1.888   6.364   4.367  0.8860 -0.3430  0.3335
  167PVA    H7628347   1.965   6.416   4.338 -0.9305  1.3331 -1.9413
  167PVA    C3928348   1.680   6.206   4.323 -0.2014 -0.5881 -0.5542
  167PVA    H7728349   1.633   6.194   4.225  2.6176  0.6804 -2.2074
  167PVA    H7828350   1.612   6.247   4.399  0.7921  1.6363 -0.7709
  167PVA    C4028351   1.745   6.081   4.386 -1.0529 -0.0764 -0.7387
  167PVA    H7928352   1.795   6.032   4.302 -0.0295  2.0554 -1.4407
  167PVA    H8028353   1.818   6.117   4.460  2.0079 -3.5553 -1.7559
  167PVA    C4128354   1.642   5.988   4.456  0.1014  0.6481 -0.9596
  167PVA    H8128355   1.549   6.043   4.471 -2.7702 -3.8264 -0.4503
  167PVA    O1428356   1.696   5.946   4.577  0.0232  0.6537 -0.2004
  167PVA    H8228357   1.622   5.925   4.636 -0.0982 -0.8638 -0.8531
  167PVA    C4228358   1.605   5.864   4.371  0.6149 -0.0195 -0.4730
  167PVA    H8328359   1.622   5.874   4.263 -2.1326  1.9765 -0.8430
  167PVA    H8428360   1.674   5.792   4.416  1.7673  1.5192  0.3263
  167PVA    C4328361   1.456   5.811   4.385  0.2830  0.0349  0.4747
  167PVA    H8528362   1.390   5.897   4.371  4.3376  3.4498  0.6441
  167PVA    H8628363   1.441   5.767   4.484 -0.5800  0.8351  0.7116
  167PVA    C4428364   1.421   5.695   4.275 -0.4658 -0.6876 -0.3405
  167PVA    H8728365   1.475   5.728   4.185 -3.8587  3.0964 -1.3044
  167PVA    O1528366   1.476   5.570   4.323  1.1446 -0.9670  0.3374
  167PVA    H8828367   1.572   5.575   4.305  0.7849 -2.0709 -2.3760
  167PVA    C4528368   1.264   5.688   4.217 -0.3054 -0.2178 -0.5120
  167PVA    H8928369   1.231   5.785   4.177 -0.9728 -1.5090 -3.3732
  167PVA    H9028370   1.195   5.657   4.295  0.0163  0.7378  0.1704
  167PVA    C4628371   1.239   5.587   4.098  0.1698 -0.2337 -1.5695
  167PVA    H9128372   1.288   5.617   4.005  1.9832  0.3064 -0.4916
  167PVA    H9228373   1.282   5.490   4.125 -0.2053  0.0589  0.2388
  167PVA    C4728374   1.088   5.572   4.066  0.4638 -0.6300  0.6640
  167PVA    H9328375   1.052   5.670   4.033 -0.7641 -0.8053  1.4413
  167PVA    O1628376   1.010   5.513   4.179  0.5078 -0.1999  0.4115
  167PVA    H9428377   1.039   5.420   4.184 -1.1573 -1.0797 -3.1176
  167PVA    C4828378   1.085   5.485   3.933 -0.4293  0.4345  0.3106
  167PVA    H9528379   1.174   5.490   3.868 -1.7814  2.2342 -1.5284
  167PVA    H9628380   1.081   5.381   3.966  2.7130 -0.1672 -0.8512
  167PVA    C4928381   0.962   5.496   3.839  0.3582  0.0615  0.6330
  167PVA    H9728382   0.955   5.600   3.805 -1.5717 -1.0965 -3.0325
  167PVA    H9828383   0.885   5.466   3.912  2.1787  1.7965  3.4630
  167PVA    C5028384   0.938   5.401   3.718  0.8506  0.0495  0.2432
  167PVA    H9928385   0.896   5.308   3.759 -0.7175  0.2087 -0.9170
  167PVA    O1728386   1.060   5.380   3.647 -0.1518  1.0481  0.9461
  167PVA   H10028387   1.065   5.285   3.626 -4.2986  1.0003 -0.8509
  167PVA    C5128388   0.851   5.462   3.612 -0.1426  0.2550  0.4429
  167PVA   H10128389   0.759   5.490   3.664 -0.5035  2.4376 -1.2310
  167PVA   H10228390   0.899   5.547   3.563  4.6892 -1.5523  1.5333
  168PVA     C128391   4.088   0.496   3.838  0.1141  0.7210  0.1459
  168PVA     H128392   4.151   0.482   3.749 -1.4137 -0.6680 -0.7810
  168PVA     H228393   4.100   0.601   3.867 -0.6348  0.5502  1.1098
  168PVA     C228394   3.937   0.461   3.820  0.3288  0.6674  0.4109
  168PVA     H328395   3.894   0.456   3.920 -2.8051  1.3094 -0.8044
  168PVA     O128396   3.907   0.338   3.762 -0.4477 -0.0436  0.6483
  168PVA     H428397   3.915   0.345   3.666  0.5442 -0.1433  0.7146
  168PVA     C328398   3.844   0.570   3.746  0.0985 -0.2581  0.9470
  168PVA     H528399   3.833   0.567   3.637 -1.7919 -0.8173  1.1065
  168PVA     H628400   3.884   0.671   3.762  3.1647 -1.1931 -0.0815
  168PVA     C428401   3.688   0.556   3.776 -1.0530 -0.9745 -0.4895
  168PVA     H728402   3.631   0.463   3.766 -2.2694 -0.4378  1.0920
  168PVA     H828403   3.695   0.574   3.884 -4.2860  0.2180 -0.3947
  168PVA     C528404   3.607   0.667   3.711 -0.2491  0.4338 -0.1030
  168PVA     H928405   3.669   0.757   3.700 -2.1593  1.7755 -0.3569
  168PVA     O228406   3.575   0.610   3.588 -0.4066  0.3110 -0.2215
  168PVA    H1028407   3.653   0.640   3.539  1.2839  0.0710  2.1605
  168PVA     C628408   3.490   0.721   3.790 -0.8274 -0.5272 -0.0721
  168PVA    H1128409   3.452   0.634   3.845  5.5277 -1.6907  3.4687
  168PVA    H1228410   3.523   0.796   3.863  0.3005 -0.0818 -1.0012
  168PVA     C728411   3.373   0.780   3.698  0.6365  0.8406  0.7962
  168PVA    H1328412   3.308   0.697   3.670 -2.5752  3.5559 -0.5547
  168PVA    H1428413   3.426   0.802   3.604  1.7595  2.6878  1.7861
  168PVA     C828414   3.279   0.897   3.746 -0.3902  1.0391 -0.5761
  168PVA    H1528415   3.321   0.998   3.750  0.6542  0.6508 -1.3559
  168PVA     O328416   3.259   0.873   3.889  0.5147 -0.2374 -0.0695
  168PVA    H1628417   3.163   0.856   3.892  0.2809  1.1029  2.6101
  168PVA     C928418   3.146   0.895   3.678  0.4942 -0.7371 -0.2765
  168PVA    H1728419   3.070   0.924   3.751 -1.5840  2.8328 -3.4793
  168PVA    H1828420   3.132   0.792   3.643 -0.1294 -1.3392  1.6807
  168PVA    C1028421   3.129   1.015   3.573 -0.4475  0.5340  0.0091
  168PVA    H1928422   3.164   1.111   3.613  1.1024  0.0822 -0.2077
  168PVA    H2028423   3.197   0.994   3.489  2.4025 -3.6239  2.9831
  168PVA    C1128424   2.991   1.045   3.501  0.3665  0.7225  0.2899
  168PVA    H2128425   2.970   0.951   3.450 -6.6531  0.6698  2.2642
  168PVA     O428426   2.889   1.047   3.595 -0.2455  0.0826 -0.5586
  168PVA    H2228427   2.927   1.106   3.663  1.0870  0.4268 -1.5653
  168PVA    C1228428   2.979   1.171   3.414 -0.3699 -0.3204  0.6838
  168PVA    H2328429   3.063   1.239   3.431 -4.2559  4.2320  4.2292
  168PVA    H2428430   2.969   1.159   3.305 -2.0175  1.4523  0.6067
  168PVA    C1328431   2.869   1.276   3.439 -0.1333 -0.4667 -0.4907
  168PVA    H2528432   2.768   1.238   3.421  0.5031 -1.9818 -1.0049
  168PVA    H2628433   2.878   1.317   3.541  3.8716 -1.0710 -0.4339
  168PVA    C1428434   2.866   1.408   3.349  0.1150 -0.1311 -0.1104
  168PVA    H2728435   2.974   1.430   3.353 -0.3115  2.2154  0.1089
  168PVA     O528436   2.831   1.375   3.210  0.5827 -0.7936  0.4427
  168PVA    H2828437   2.914   1.348   3.167  1.4925  1.6860  0.4983
  168PVA    C1528438   2.781   1.523   3.394  1.8670 -0.3905  0.1652
  168PVA    H2928439   2.826   1.571   3.481  1.9516  1.9652 -1.1015
  168PVA    H3028440   2.690   1.474   3.431  0.6462 -0.1669 -2.3269
  168PVA    C1628441   2.738   1.649   3.303  0.2878  1.0649  0.1425
  168PVA    H3128442   2.801   1.738   3.295 -3.2572  4.0498  2.0351
  168PVA    H3228443   2.707   1.611   3.205 -1.8354  1.9059  0.4308
  168PVA    C1728444   2.600   1.709   3.344 -0.9281  0.9099  0.2495
  168PVA    H3328445   2.538   1.618   3.340 -0.8489  0.8693 -0.0526
  168PVA     O628446   2.620   1.767   3.466 -0.2331  0.2054  0.4465
  168PVA    H3428447   2.549   1.756   3.533 -0.8142 -0.0804 -0.2059
  168PVA    C1828448   2.536   1.805   3.230 -0.8374  0.4868  0.3820
  168PVA    H3528449   2.617   1.875   3.203 -0.9419  0.7606  0.7562
  168PVA    H3628450   2.511   1.754   3.137  1.3335  1.6927 -0.9324
  168PVA    C1928451   2.415   1.891   3.304  0.4897 -0.8392 -0.1633
  168PVA    H3728452   2.467   1.978   3.346 -1.0881  0.1157 -0.1239
  168PVA    H3828453   2.375   1.817   3.374 -1.0525 -0.1558 -0.2711
  168PVA    C2028454   2.308   1.965   3.211  0.5867  0.1942  0.6683
  168PVA    H3928455   2.277   1.879   3.150 -0.5061 -2.1753  4.2722
  168PVA     O728456   2.359   2.069   3.131  0.4869 -0.4285  0.5788
  168PVA    H4028457   2.307   2.101   3.055 -0.6454  0.6760  1.7756
  168PVA    C2128458   2.181   2.011   3.293 -0.2693 -0.1648 -0.4944
  168PVA    H4128459   2.223   2.082   3.365  4.2862  1.7294 -4.4291
  168PVA    H4228460   2.157   1.918   3.346 -1.7207 -1.7652 -3.6501
  168PVA    C2228461   2.042   2.065   3.235  0.1028  0.0398 -0.2000
  168PVA    H4328462   2.052   2.152   3.169 -3.6816  4.0845  3.8277
  168PVA    H4428463   2.001   1.985   3.172  3.8433  0.0960 -3.0818
  168PVA    C2328464   1.938   2.113   3.330  0.3746 -0.2081  0.7862
  168PVA    H4528465   1.847   2.130   3.272  1.2933  0.1848 -0.6061
  168PVA     O828466   1.911   2.012   3.425  0.3016 -0.2028 -0.6485
  168PVA    H4628467   1.822   2.017   3.463 -0.2374 -0.7404 -1.7914
  168PVA    C2428468   1.984   2.254   3.396 -0.3230 -0.3676 -0.0785
  168PVA    H4728469   2.029   2.321   3.322  2.4523 -1.4927  0.4589
  168PVA    H4828470   2.065   2.227   3.464 -2.1663 -1.0553  1.9536
  168PVA    C2528471   1.865   2.335   3.469  0.7222 -0.9843 -0.5020
  168PVA    H4928472   1.855   2.289   3.569  2.8583 -1.4455 -0.4522
  168PVA    H5028473   1.761   2.316   3.438 -0.4189 -0.3940  2.5940
  168PVA    C2628474   1.876   2.490   3.466  0.5993  0.5173 -0.3468
  168PVA    H5128475   1.847   2.515   3.363 -4.7448 -1.5531  0.3143
  168PVA     O928476   2.003   2.533   3.498 -0.2335 -0.3971  0.1175
  168PVA    H5228477   1.988   2.629   3.506  0.0983 -0.1022 -2.1581
  168PVA    C2728478   1.778   2.578   3.550  0.0416 -1.7511 -0.3616
  168PVA    H5328479   1.795   2.575   3.659 -4.5427  2.2275  0.8062
  168PVA    H5428480   1.674   2.543   3.553 -0.4322 -0.3350  0.7448
  168PVA    C2828481   1.779   2.737   3.518  0.6059  1.1828  1.1287
  168PVA    H5528482   1.886   2.755   3.497  0.0518  1.8052 -1.4569
  168PVA    H5628483   1.705   2.759   3.440  1.8925 -5.7282 -2.9401
  168PVA    C2928484   1.760   2.816   3.639 -0.0737  0.7594 -0.4094
  168PVA    H5728485   1.831   2.776   3.712  2.3946  1.8921 -2.0300
  168PVA    O1028486   1.639   2.782   3.706 -0.1339  0.5928  0.1455
  168PVA    H5828487   1.579   2.736   3.645  2.9828 -1.8113 -1.3641
  168PVA    C3028488   1.784   2.961   3.608  0.0966 -1.2123  0.3591
  168PVA    H5928489   1.839   3.008   3.691 -2.2747  2.0900  0.2662
  168PVA    H6028490   1.853   2.977   3.524  2.4757  0.4427  2.4637
  168PVA    C3128491   1.661   3.061   3.570  0.5643  1.2716  0.0885
  168PVA    H6128492   1.579   3.055   3.642  0.4914  3.3549  0.2327
  168PVA    H6228493   1.621   3.036   3.471 -3.7849 -3.6261  2.5972
  168PVA    C3228494   1.705   3.210   3.555 -0.4200  0.0907 -1.0755
  168PVA    H6328495   1.728   3.255   3.652 -1.7249  1.0357 -1.1805
  168PVA    O1128496   1.825   3.224   3.480 -0.2500 -1.0375 -0.2344
  168PVA    H6428497   1.898   3.221   3.545 -0.6192  1.2304  0.3524
  168PVA    C3328498   1.597   3.313   3.499  0.2670 -0.4765  0.8203
  168PVA    H6528499   1.500   3.280   3.538 -0.3896  0.9742  0.4770
  168PVA    H6628500   1.588   3.284   3.394 -3.1078  2.6145  0.0393
  168PVA    C3428501   1.622   3.467   3.525  0.3102  0.6744  0.3349
  168PVA    H6728502   1.723   3.482   3.567  1.7713 -4.4043 -0.6963
  168PVA    H6828503   1.645   3.519   3.431 -0.1247  0.3758  0.0653
  168PVA    C3528504   1.512   3.551   3.598 -0.1312  0.0465  0.2291
  168PVA    H6928505   1.512   3.536   3.707 -0.1416  0.9998  0.3750
  168PVA    O1228506   1.392   3.525   3.550  0.0741 -0.0017  0.4027
  168PVA    H7028507   1.326   3.506   3.618  0.7950  0.0470  1.1353
  168PVA    C3628508   1.537   3.706   3.585  0.9448 -0.2119  0.7284
  168PVA    H7128509   1.611   3.740   3.658  1.0802  1.4899 -0.1451
  168PVA    H7228510   1.581   3.734   3.488  1.4195 -3.9072 -0.2924
  168PVA    C3728511   1.412   3.802   3.605  0.0930 -0.2332  0.4503
  168PVA    H7328512   1.374   3.801   3.708 -0.9136 -1.1766  0.0770
  168PVA    H7428513   1.318   3.766   3.563 -1.5541  0.5468  3.2166
  168PVA    C3828514   1.417   3.953   3.588 -0.3674  0.5974 -0.1596
  168PVA    H7528515   1.463   3.977   3.491 -0.4291 -1.9326 -0.8840
  168PVA    O1328516   1.512   4.000   3.690 -0.3635  0.6123  0.5487
  168PVA    H7628517   1.480   3.926   3.745  0.1302  0.5904  0.8089
  168PVA    C3928518   1.280   4.009   3.624  0.3104 -0.5064  0.1959
  168PVA    H7728519   1.264   3.993   3.731  0.1574  3.2367  0.8620
  168PVA    H7828520   1.194   3.961   3.576  1.3111 -2.5121  0.3095
  168PVA    C4028521   1.287   4.164   3.614 -0.7050  0.8003 -0.0579
  168PVA    H7928522   1.366   4.207   3.676  1.2426 -2.8858  0.2806
  168PVA    H8028523   1.309   4.198   3.512  0.6829  1.8652  0.5612
  168PVA    C4128524   1.155   4.229   3.648  0.1260 -0.7786 -0.8947
  168PVA    H8128525   1.080   4.171   3.592  1.3785 -0.9425 -2.4563
  168PVA    O1428526   1.119   4.217   3.787 -1.0403  0.8357  0.1656
  168PVA    H8228527   1.136   4.309   3.813  1.1949  0.9239 -1.4196
  168PVA    C4228528   1.159   4.388   3.604 -0.1826 -0.5446 -0.9229
  168PVA    H8328529   1.114   4.456   3.678 -3.3252 -0.4215 -2.7834
  168PVA    H8428530   1.259   4.430   3.619 -1.0359  1.9593 -1.7837
  168PVA    C4328531   1.133   4.419   3.451  0.5644  0.2305 -0.3716
  168PVA    H8528532   1.145   4.327   3.394  3.8397  0.7207 -0.6540
  168PVA    H8628533   1.210   4.495   3.434  0.0706  1.1982  1.4386
  168PVA    C4428534   0.992   4.487   3.439  0.3063  0.3245 -1.2245
  168PVA    H8728535   0.915   4.422   3.482  0.2392 -0.8540 -2.9943
  168PVA    O1528536   0.985   4.608   3.510  0.5350 -0.2939 -0.5339
  168PVA    H8828537   1.071   4.631   3.549  1.0046 -3.0085  0.2006
  168PVA    C4528538   0.960   4.497   3.282  0.9807  0.5107 -1.0029
  168PVA    H8928539   0.905   4.407   3.252  0.3633 -0.0643  1.5944
  168PVA    H9028540   1.058   4.494   3.233  0.8629 -0.4947 -1.2002
  168PVA    C4628541   0.877   4.630   3.231  0.3225  1.4350  0.0842
  168PVA    H9128542   0.773   4.629   3.265  0.9412  0.3320  2.1190
  168PVA    H9228543   0.918   4.718   3.280 -1.4437  1.1531  2.2230
  168PVA    C4728544   0.874   4.653   3.073  0.8513 -0.5530  0.2298
  168PVA    H9328545   0.978   4.671   3.043  0.8805  2.1170  1.6218
  168PVA    O1628546   0.819   4.541   3.003  0.2762 -0.6037  0.2651
  168PVA    H9428547   0.775   4.594   2.934  3.2830  1.7563 -0.0242
  168PVA    C4828548   0.797   4.786   3.048 -1.6778 -0.5240  0.0008
  168PVA    H9528549   0.830   4.826   2.951 -1.3664 -2.1954 -0.6241
  168PVA    H9628550   0.690   4.777   3.067 -2.2498  4.3245  0.2810
  168PVA    C4928551   0.844   4.904   3.142 -0.3304  1.6143 -1.3779
  168PVA    H9728552   0.953   4.911   3.153  0.1551 -2.4065 -2.0229
  168PVA    H9828553   0.805   4.886   3.243 -0.8519  2.5146 -1.4115
  168PVA    C5028554   0.777   5.039   3.095  0.0534 -0.1643 -0.5062
  168PVA    H9928555   0.790   5.042   2.986 -0.8512 -3.5960 -0.8132
  168PVA    O1728556   0.634   5.028   3.119  1.1730 -0.0432 -0.0420
  168PVA   H10028557   0.602   5.061   3.033  1.3493  0.7854  0.2021
  168PVA    C5128558   0.840   5.166   3.163 -0.4153  0.3266 -0.0945
  168PVA   H10128559   0.827   5.242   3.086 -0.6255  0.5967  0.2033
  168PVA   H10228560   0.949   5.155   3.158 -0.4125  0.4034 -5.1374
  169PVA     C128561   4.254   0.059   4.065  0.4567 -0.7378  0.2262
  169PVA     H128562   4.148   0.031   4.072  0.0754  0.9470  2.6382
  169PVA     H228563   4.294   0.020   3.971  2.5740  0.1457  0.6984
  169PVA     C228564   4.328   7.669   4.179  0.2650  1.0160  0.4050
  169PVA     H328565   4.418   0.047   4.176  0.2647  1.2779  3.2708
  169PVA     O128566   4.366   7.536   4.128 -0.3450  0.0054  0.0890
  169PVA     H428567   4.443   7.503   4.177 -0.2559 -2.5400 -1.5883
  169PVA     C328568   4.280   7.663   4.320  0.0371  1.0688 -0.8757
  169PVA     H528569   4.189   7.601   4.316  0.1728  0.9131 -1.9055
  169PVA     H628570   4.241   0.075   4.354 -0.7807  0.0711  1.2120
  169PVA     C428571   4.373   7.603   4.442  0.5137  0.2578  0.7082
  169PVA     H728572   4.434   7.530   4.387 -0.1948  0.6881 -0.7074
  169PVA     H828573   4.421   0.011   4.476  1.2118  1.4352 -3.0103
  169PVA     C528574   4.320   7.533   4.577  0.3227  0.1070 -0.1932
  169PVA     H928575   4.298   7.431   4.543  1.3380 -0.7294  1.5552
  169PVA     O228576   4.206   7.595   4.630  0.1913 -0.9390 -1.1351
  169PVA    H1028577   4.227   0.001   4.660  0.0058 -1.5689  1.1041
  169PVA     C628578   4.419   7.513   4.690  0.3546  0.5665 -0.4526
  169PVA    H1128579   4.500   7.472   4.629  1.2141  1.9313 -0.2723
  169PVA    H1228580   4.460   7.607   4.727 -1.2990  2.4185 -2.9481
  169PVA     C728581   4.385   7.407   4.803 -0.2716  0.8507  0.0127
  169PVA    H1328582   4.404   7.308   4.759 -4.7009 -0.8475  1.3766
  169PVA    H1428583   4.276   7.415   4.817 -1.1546 -1.2725 -3.9506
  169PVA     C828584   4.467   7.425   4.936 -1.2918 -0.7677  0.9417
  169PVA    H1528585   4.447   7.531   4.958  1.3130  0.1301 -0.6173
  169PVA     O328586   4.611   7.431   4.919 -1.1470 -0.1492 -1.3172
  169PVA    H1628587   4.653   7.502   4.970 -1.2821  0.1438 -1.6130
  169PVA     C928588   4.412   7.342   5.059  0.1192 -0.1214 -0.8829
  169PVA    H1728589   4.381   7.244   5.019  1.6447 -0.2651 -1.7851
  169PVA    H1828590   4.326   7.386   5.111  0.9394 -0.5555  0.9270
  169PVA    C1028591   4.506   7.304   5.180  1.2816  0.6429  0.2631
  169PVA    H1928592   4.577   7.237   5.130  2.9716  0.5694  2.5949
  169PVA    H2028593   4.557   7.395   5.216  1.0059  0.1456  2.0318
  169PVA    C1128594   4.445   7.221   5.299  1.1232 -0.0899 -0.2412
  169PVA    H2128595   4.337   7.236   5.301  0.0005 -5.9215 -0.0335
  169PVA     O428596   4.475   7.080   5.282 -1.0668  0.7204  1.0235
  169PVA    H2228597   4.572   7.080   5.281 -0.8803  3.3523  4.1882
  169PVA    C1228598   4.491   7.250   5.445 -0.3337  2.0947 -0.6993
  169PVA    H2328599   4.492   7.358   5.468  2.2057  1.8272  0.7662
  169PVA    H2428600   4.594   7.214   5.454 -1.4404 -0.8172  2.7275
  169PVA    C1328601   4.417   7.172   5.562  0.8594 -0.5564  0.9556
  169PVA    H2528602   4.409   7.065   5.536 -2.2508 -0.4717  1.2402
  169PVA    H2628603   4.315   7.211   5.564  0.7783 -0.7813  2.5910
  169PVA    C1428604   4.467   7.180   5.711 -0.7945 -1.3835 -0.0236
  169PVA    H2728605   4.498   7.281   5.737 -0.1665 -1.6548  0.3036
  169PVA     O528606   4.578   7.090   5.723 -0.5648 -0.3067 -0.5127
  169PVA    H2828607   4.652   7.136   5.766 -2.5456  3.0306 -0.3667
  169PVA    C1528608   4.365   7.139   5.821  0.1357  0.4726  0.1495
  169PVA    H2928609   4.364   7.035   5.789 -1.1921 -0.5573  3.1870
  169PVA    H3028610   4.277   7.197   5.791  0.0655 -1.0350 -2.8882
  169PVA    C1628611   4.392   7.152   5.979  0.6221  1.1840  1.2955
  169PVA    H3128612   4.466   7.231   5.995 -1.4565  3.4712  0.3701
  169PVA    H3228613   4.433   7.059   6.021 -1.1207 -0.0898  0.3103
  169PVA    C1728614   4.265   7.197   6.061  0.5206  1.2916 -0.4321
  169PVA    H3328615   4.241   7.300   6.031 -1.3793  0.7504 -0.9157
  169PVA     O628616   4.148   7.125   6.023 -0.2629  0.2994  0.7313
  169PVA    H3428617   4.164   7.104   5.929 -1.8932 -4.4692  1.2570
  169PVA    C1828618   4.284   7.184   6.217 -1.0297  0.6691 -1.0023
  169PVA    H3528619   4.327   7.090   6.254 -1.0774  0.9192 -0.2769
  169PVA    H3628620   4.356   7.266   6.232 -0.8003  0.0909  1.5483
  169PVA    C1928621   4.159   7.204   6.307 -0.1902  0.1631  0.1197
  169PVA    H3728622   4.094   7.117   6.290 -0.8627  1.0281 -2.0925
  169PVA    H3828623   4.102   7.292   6.275  0.9077  0.0476 -2.3778
  169PVA    C2028624   4.193   7.205   6.466  0.7701 -1.2328  0.3672
  169PVA    H3928625   4.290   7.253   6.485  1.5435 -2.9839  1.0279
  169PVA     O728626   4.199   7.074   6.523  0.7972  0.3895  0.7399
  169PVA    H4028627   4.137   7.017   6.474  0.8198  0.6149  0.4478
  169PVA    C2128628   4.085   7.278   6.554  0.1647  0.5030 -0.0019
  169PVA    H4128629   4.080   7.373   6.500  0.5748  2.2737  2.8475
  169PVA    H4228630   3.981   7.246   6.540 -1.0264  4.3898 -1.0376
  169PVA    C2228631   4.101   7.330   6.704 -0.3140 -0.2046 -0.8459
  169PVA    H4328632   4.208   7.352   6.718 -0.5772 -0.1792  1.5637
  169PVA    H4428633   4.048   7.425   6.717  0.0779 -0.3626  3.1977
  169PVA    C2328634   4.066   7.226   6.817 -1.4626  0.9548  0.2038
  169PVA    H4528635   3.980   7.166   6.783  0.2510 -1.5516  0.0370
  169PVA     O828636   4.162   7.117   6.836  0.5091  0.0393 -0.1811
  169PVA    H4628637   4.189   7.078   6.751  3.0152  0.2161  0.4719
  169PVA    C2428638   4.044   7.300   6.957  0.2791  0.5380 -0.3178
  169PVA    H4728639   4.135   7.355   6.985 -0.8464  2.4685 -0.2543
  169PVA    H4828640   3.985   7.388   6.927 -2.3847 -1.2486 -0.6264
  169PVA    C2528641   3.998   7.205   7.076 -0.6976  0.6566 -0.1235
  169PVA    H4928642   3.936   7.121   7.043  1.4204 -2.2934  2.7220
  169PVA    H5028643   4.088   7.149   7.105 -1.4833  0.3696  1.8728
  169PVA    C2628644   3.925   7.285   7.199 -0.5442 -1.0335  0.6511
  169PVA    H5128645   3.989   7.361   7.246 -3.7974  3.3152 -1.2106
  169PVA     O928646   3.817   7.348   7.148  0.0694  0.9591  0.0149
  169PVA    H5228647   3.823   7.362   7.052 -1.0916 -2.4181 -0.6623
  169PVA    C2728648   3.879   7.180   7.307  0.8373  0.8005 -0.3490
  169PVA    H5328649   3.975   7.135   7.338  0.9951  0.7982 -0.8362
  169PVA    H5428650   3.829   7.090   7.269  1.7470 -1.0355  2.4440
  169PVA    C2828651   3.793   7.239   7.420  0.0722  1.4212  0.2708
  169PVA    H5528652   3.841   7.337   7.429  1.1624  0.8169  1.3890
  169PVA    H5628653   3.701   7.270   7.369  1.0953  2.3809 -1.0562
  169PVA    C2928654   3.781   7.155   7.552  0.5551  0.3046  1.0522
  169PVA    H5728655   3.882   7.162   7.595  2.5506 -2.2642 -2.5523
  169PVA    O1028656   3.755   7.018   7.528 -0.6285  0.0513  0.0506
  169PVA    H5828657   3.672   6.987   7.489  0.1587 -3.9012  1.0894
  169PVA    C3028658   3.688   7.205   7.667  0.2673  0.1198 -0.1571
  169PVA    H5928659   3.634   7.298   7.642 -0.5483 -1.0616 -3.2509
  169PVA    H6028660   3.602   7.138   7.677 -1.4296  1.8202 -2.3287
  169PVA    C3128661   3.765   7.209   7.804  0.1164  0.4601 -0.3023
  169PVA    H6128662   3.830   7.120   7.805 -3.0661 -2.0492  0.1191
  169PVA    H6228663   3.832   7.292   7.828  1.5116 -1.0390  1.3411
  169PVA    C3228664   3.645   7.212   7.913 -0.6219  0.4839  0.0843
  169PVA    H6328665   3.543   7.203   7.873 -1.0209 -5.3303  1.4978
  169PVA    O1128666   3.661   7.098   7.984  0.4483 -0.4394  0.9528
  169PVA    H6428667   3.746   7.095   8.031  0.2230  4.6762  2.2790
  169PVA    C3328668   3.664   7.339   8.007  0.5874  0.5043  0.7401
  169PVA    H6528669   3.673   7.422   7.936 -0.1334 -2.5037 -3.2215
  169PVA    H6628670   3.763   7.329   8.053  2.1945 -1.2200 -2.7484
  169PVA    C3428671   3.532   7.357   8.093  0.1992  0.6120 -0.7473
  169PVA    H6728672   3.438   7.331   8.043  0.5387  0.6152 -1.3908
  169PVA    H6828673   3.528   7.282   0.076  0.1765  1.8425  0.4438
  169PVA    C3528674   3.519   7.485   0.073 -0.4972  0.1712  1.1044
  169PVA    H6928675   3.582   7.472   0.162  0.8745  3.9779  0.8954
  169PVA    O1228676   3.591   7.597   0.015  0.9862  0.0100 -0.0623
  169PVA    H7028677   3.612   7.670   0.076  2.3446 -0.2912 -0.1345
  169PVA    C3628678   3.382   7.535   0.106 -0.2185  0.3993  0.3226
  169PVA    H7128679   3.323   7.467   0.168 -0.9865 -0.2205 -1.0216
  169PVA    H7228680   3.327   7.530   0.011  0.8231 -0.5952 -0.2525
  169PVA    C3728681   3.367   7.678   0.179 -0.1156 -0.2045  0.1750
  169PVA    H7328682   3.442   0.012   0.257  0.6512  0.8214 -0.7884
  169PVA    H7428683   3.380   0.079   0.113 -1.2699 -1.2304 -1.4492
  169PVA    C3828684   3.243   0.016   0.271 -0.5623 -0.0987 -0.0497
  169PVA    H7528685   3.247   7.628   0.354  2.1779  1.4135  1.3110
  169PVA    O1328686   3.131   7.673   0.192 -1.3695  0.6449 -0.5145
  169PVA    H7628687   3.157   7.646   0.102 -0.0624 -4.0365  0.9951
  169PVA    C3928688   3.226   0.153   0.336 -0.3578 -0.3827  0.1086
  169PVA    H7728689   3.172   0.226   0.274 -1.6472 -2.5188 -1.4667
  169PVA    H7828690   3.321   0.205   0.352  0.5467 -2.3821  1.7156
  169PVA    C4028691   3.119   0.152   0.451 -1.2271  0.1296 -0.8328
  169PVA    H7928692   3.173   0.104   0.533  2.3755  2.2992 -1.7103
  169PVA    H8028693   3.045   0.075   0.427 -0.6212 -1.4969  2.0460
  169PVA    C4128694   3.056   0.283   0.511 -0.0135 -1.4784 -0.5209
  169PVA    H8128695   3.111   0.369   0.471 -1.4112 -1.1447 -1.8459
  169PVA    O1428696   2.924   0.298   0.467  0.1114 -0.4618  0.8420
  169PVA    H8228697   2.885   0.353   0.537  0.2301 -0.2028  0.7060
  169PVA    C4228698   3.055   0.328   0.652 -0.8938 -1.2874 -0.0109
  169PVA    H8328699   2.977   0.274   0.707 -0.1401  0.5329  3.0746
  169PVA    H8428700   3.152   0.332   0.703 -0.8149  1.8067 -0.2337
  169PVA    C4328701   3.014   0.480   0.684  0.2644  1.1437  1.1685
  169PVA    H8528702   2.913   0.506   0.650 -0.4137  0.3112  2.4243
  169PVA    H8628703   3.088   0.548   0.640  2.0924 -1.9049 -0.8318
  169PVA    C4428704   3.012   0.528   0.840 -0.4852 -0.5365  0.0392
  169PVA    H8728705   3.115   0.546   0.872 -0.8160  1.0089  0.3578
  169PVA    O1528706   2.954   0.429   0.924  0.1495 -0.3499 -0.4215
  169PVA    H8828707   2.863   0.402   0.900  0.0477 -1.0651  0.6918
  169PVA    C4528708   2.917   0.656   0.854 -0.3043 -0.0144 -0.0358
  169PVA    H8928709   2.812   0.627   0.837 -0.2530 -0.6292  0.6695
  169PVA    H9028710   2.957   0.713   0.769  0.2349  1.8923  1.4298
  169PVA    C4628711   2.938   0.751   0.967  0.2381 -0.5807  0.0057
  169PVA    H9128712   2.901   0.699   1.057 -2.7045  0.8443 -0.2648
  169PVA    H9228713   3.044   0.772   0.989 -0.5190  2.9820  0.9041
  169PVA    C4728714   2.853   0.887   0.963 -0.4698  0.1920 -0.1820
  169PVA    H9328715   2.881   0.946   0.876  4.7231 -0.9067  0.4522
  169PVA    O1628716   2.719   0.833   0.974 -0.6383 -0.4248 -0.2768
  169PVA    H9428717   2.676   0.886   1.043  0.4487 -1.3095  1.1555
  169PVA    C4828718   2.880   0.971   1.090  0.4683 -0.9669 -0.1488
  169PVA    H9528719   2.827   0.938   1.181 -1.6630  1.3051 -0.4588
  169PVA    H9628720   2.987   0.954   1.106  0.7917  0.8685 -0.2678
  169PVA    C4928721   2.842   1.119   1.063  0.6657  0.3288  0.9232
  169PVA    H9728722   2.734   1.134   1.052  1.2346  3.6479 -2.2484
  169PVA    H9828723   2.879   1.145   0.963  5.2331 -4.6623  0.8954
  169PVA    C5028724   2.884   1.225   1.174  0.2251  0.1133  0.8845
  169PVA    H9928725   2.822   1.215   1.264  2.7499 -1.0536  2.5908
  169PVA    O1728726   3.010   1.190   1.224 -0.0138 -0.5788  0.6453
  169PVA   H10028727   3.016   1.196   1.320  0.3746 -0.7954  0.6401
  169PVA    C5128728   2.880   1.377   1.125  0.3940  0.4187 -0.0768
  169PVA   H10128729   2.815   1.382   1.036  0.1334 -0.5547  0.0413
  169PVA   H10228730   2.977   1.401   1.081 -0.3695 -0.1330 -2.1996
  170PVA     C128731   0.058   5.018   2.954 -0.3084 -0.0117  0.2987
  170PVA     H128732   7.746   5.000   2.878  0.5207 -2.9717  0.0493
  170PVA     H228733   0.033   4.935   3.022  2.5345 -1.2209  0.0125
  170PVA     C228734   0.197   4.979   2.905 -0.0876  0.9952  0.5726
  170PVA     H328735   0.253   4.947   2.994  0.4599 -3.2124 -1.0777
  170PVA     O128736   0.264   5.072   2.822  0.3724 -0.1347  0.2274
  170PVA     H428737   0.267   5.159   2.865 -1.3420  0.1659 -0.1863
  170PVA     C328738   0.184   4.844   2.821  0.3212  0.1736 -0.4143
  170PVA     H528739   0.135   4.770   2.885  0.6146 -1.7485 -2.2552
  170PVA     H628740   0.129   4.855   2.726  1.1366 -2.3817 -1.2713
  170PVA     C428741   0.321   4.776   2.794  0.4978  1.1282 -0.3791
  170PVA     H728742   0.380   4.774   2.886 -0.1146  0.9653  0.0191
  170PVA     H828743   0.377   4.845   2.730  1.4299 -1.2471 -2.2992
  170PVA     C528744   0.316   4.644   2.715  1.1025 -0.5813 -0.4779
  170PVA     H928745   0.228   4.582   2.735 -1.3560  1.9845 -2.4509
  170PVA     O228746   0.323   4.671   2.580 -0.5183 -0.3729  0.3698
  170PVA    H1028747   0.266   4.749   2.566  0.2278 -0.0633 -1.1003
  170PVA     C628748   0.440   4.557   2.765 -0.3397 -0.2634  0.7268
  170PVA    H1128749   0.523   4.628   2.750  0.3282 -0.2308  3.9136
  170PVA    H1228750   0.424   4.543   2.872  1.8861 -3.0121  0.8114
  170PVA     C728751   0.459   4.416   2.694  0.0597  0.3245  0.2600
  170PVA    H1328752   0.469   4.407   2.586  0.4740  0.8166  0.2530
  170PVA    H1428753   0.380   4.347   2.729  1.1172 -1.4805 -0.7540
  170PVA     C828754   0.575   4.332   2.766 -0.1878  0.2245 -1.5416
  170PVA    H1528755   0.566   4.354   2.873 -0.7163 -3.9636 -0.5401
  170PVA     O328756   0.696   4.397   2.719  0.4354  0.4649 -0.3107
  170PVA    H1628757   0.764   4.331   2.698 -0.6196 -0.2066 -1.7798
  170PVA     C928758   0.579   4.190   2.725  0.6858 -0.1058 -0.6349
  170PVA    H1728759   0.602   4.181   2.618  2.9623  5.5290 -1.0114
  170PVA    H1828760   0.478   4.154   2.745  1.2341 -1.7008 -0.6429
  170PVA    C1028761   0.684   4.114   2.808 -0.6131 -0.0129 -0.7525
  170PVA    H1928762   0.789   4.132   2.784 -1.4018  1.5093 -3.4408
  170PVA    H2028763   0.671   4.163   2.905 -0.4771  2.7094 -2.0140
  170PVA    C1128764   0.659   3.962   2.814  0.0935  0.6561  0.5809
  170PVA    H2128765   0.630   3.919   2.717 -0.5657 -0.4350  1.2387
  170PVA     O428766   0.532   3.942   2.883 -0.3942 -0.4397  0.1456
  170PVA    H2228767   0.554   3.921   2.975 -0.8706  2.9319  1.1631
  170PVA    C1228768   0.783   3.890   2.875  0.5333 -0.0927 -0.1541
  170PVA    H2328769   0.867   3.873   2.806  1.0326  2.3322 -0.2424
  170PVA    H2428770   0.804   3.950   2.964 -1.0843  0.4690 -0.1196
  170PVA    C1328771   0.753   3.753   2.937  0.1438 -0.4918 -0.1438
  170PVA    H2528772   0.666   3.751   3.005 -3.0140 -1.4649 -3.8796
  170PVA    H2628773   0.726   3.675   2.865  0.0736  0.0775 -0.7417
  170PVA    C1428774   0.874   3.705   3.010  0.3364 -0.2404 -0.4388
  170PVA    H2728775   0.887   3.778   3.091  1.2829  3.3396 -3.5270
  170PVA     O528776   0.994   3.706   2.947 -0.4062  0.0361  0.9976
  170PVA    H2828777   1.069   3.688   3.006  1.6791  0.6494 -1.2606
  170PVA    C1528778   0.848   3.559   3.072 -0.3508  0.0084 -1.0803
  170PVA    H2928779   0.746   3.567   3.112 -0.0846  3.0393 -0.7554
  170PVA    H3028780   0.912   3.536   3.158 -1.2034 -0.7269 -0.6321
  170PVA    C1628781   0.854   3.439   2.962 -1.5546  0.6853 -0.4053
  170PVA    H3128782   0.793   3.349   2.980 -1.1213 -0.3830 -3.5427
  170PVA    H3228783   0.833   3.472   2.859  4.2234  0.3197 -2.0684
  170PVA    C1728784   1.008   3.370   2.948  0.3405  0.1515 -0.4883
  170PVA    H3328785   1.055   3.370   3.047 -2.0921 -0.8832  0.7513
  170PVA     O628786   0.985   3.232   2.929  0.6453  0.2444 -1.3770
  170PVA    H3428787   1.080   3.212   2.918  0.4398 -0.1835 -2.4821
  170PVA    C1828788   1.107   3.427   2.844 -1.2801  0.5186  0.0565
  170PVA    H3528789   1.050   3.448   2.752 -0.6293 -1.0115 -0.7318
  170PVA    H3628790   1.151   3.519   2.884 -1.4154 -1.5137  5.7861
  170PVA    C1928791   1.218   3.340   2.801 -0.0782  0.1372  0.8433
  170PVA    H3728792   1.250   3.263   2.872 -1.4160 -2.2490 -0.9855
  170PVA    H3828793   1.182   3.264   2.731 -0.2740  1.0532 -0.0788
  170PVA    C2028794   1.343   3.412   2.733 -0.7455 -0.8976  0.0901
  170PVA    H3928795   1.366   3.494   2.801 -1.3628  4.2482 -5.1489
  170PVA     O728796   1.298   3.483   2.625 -0.1743  1.0194  0.2256
  170PVA    H4028797   1.325   3.573   2.653  2.4660  0.7527 -1.0877
  170PVA    C2128798   1.468   3.319   2.701  0.1681  0.5546 -0.9449
  170PVA    H4128799   1.453   3.262   2.609 -1.0255 -0.8038  0.0512
  170PVA    H4228800   1.465   3.238   2.775  1.5461  0.4054 -1.0302
  170PVA    C2228801   1.601   3.392   2.701  0.2795 -0.1292  0.5404
  170PVA    H4328802   1.607   3.473   2.773  2.0249 -0.3651  0.6889
  170PVA    H4428803   1.604   3.453   2.610  5.1412 -1.6177 -0.5928
  170PVA    C2328804   1.721   3.302   2.719  0.1048 -0.0070  0.4051
  170PVA    H4528805   1.708   3.257   2.818 -2.3163  2.1706  1.2031
  170PVA     O828806   1.722   3.200   2.619 -0.0985  0.2719 -0.1405
  170PVA    H4628807   1.666   3.126   2.649  0.8167 -1.6850 -2.7616
  170PVA    C2428808   1.852   3.380   2.727  0.1632  0.7774 -1.2192
  170PVA    H4728809   1.869   3.454   2.648 -0.0800  1.6099 -0.5040
  170PVA    H4828810   1.855   3.445   2.815 -3.3773  2.1044 -1.9361
  170PVA    C2528811   1.981   3.308   2.746 -0.6617  0.8281  0.1132
  170PVA    H4928812   1.954   3.232   2.820 -1.4713  2.5755  1.6913
  170PVA    H5028813   2.055   3.374   2.792  2.5687  1.9972 -5.7489
  170PVA    C2628814   2.065   3.279   2.618 -0.4989 -0.1008  1.0171
  170PVA    H5128815   2.093   3.377   2.577 -3.2043 -0.1462 -1.2372
  170PVA     O928816   1.986   3.193   2.525 -0.3719  0.2820 -0.3505
  170PVA    H5228817   1.893   3.186   2.554 -1.1464 -1.2321 -2.9120
  170PVA    C2728818   2.192   3.207   2.671  0.4876  0.5323 -0.2757
  170PVA    H5328819   2.251   3.287   2.717 -1.8846  0.9362  2.3719
  170PVA    H5428820   2.157   3.143   2.754 -5.0027  1.6388 -1.3682
  170PVA    C2828821   2.270   3.122   2.563 -0.7828 -0.8523 -0.2744
  170PVA    H5528822   2.286   3.191   2.479  1.8297 -4.5109 -3.1707
  170PVA    H5628823   2.212   3.043   2.513  2.9522 -3.7789 -0.4148
  170PVA    C2928824   2.399   3.073   2.621  0.3400  0.1968 -0.1485
  170PVA    H5728825   2.390   3.041   2.726 -0.2141  2.0533  0.3945
  170PVA    O1028826   2.484   3.183   2.613  0.1600  0.1715  0.7653
  170PVA    H5828827   2.565   3.159   2.566 -1.6665 -1.1962 -1.9246
  170PVA    C3028828   2.454   2.955   2.551  0.3341  0.1900  0.1737
  170PVA    H5928829   2.556   2.928   2.582  0.1710 -0.3208  0.2690
  170PVA    H6028830   2.390   2.870   2.575 -0.5140  0.7799  0.0314
  170PVA    C3128831   2.470   2.969   2.390 -0.2483 -0.0036 -1.9655
  170PVA    H6128832   2.460   3.075   2.361  0.4857  0.6554  0.0193
  170PVA    H6228833   2.375   2.924   2.360 -0.6502 -2.1100  1.8549
  170PVA    C3228834   2.587   2.886   2.337 -0.0449 -0.0060  0.5155
  170PVA    H6328835   2.676   2.914   2.394  0.0181 -0.0494  0.4376
  170PVA    O1128836   2.612   2.909   2.199  0.0004  0.8761 -1.0768
  170PVA    H6428837   2.609   3.001   2.170  0.5067  0.9090 -1.0322
  170PVA    C3328838   2.562   2.736   2.357 -0.0777  0.5576 -0.6521
  170PVA    H6528839   2.517   2.720   2.456 -0.9444  0.5824 -1.0355
  170PVA    H6628840   2.659   2.688   2.374 -1.7254 -2.8242  0.1274
  170PVA    C3428841   2.475   2.668   2.251  0.0595 -0.0578  0.0849
  170PVA    H6728842   2.387   2.724   2.217  0.8598  0.8840 -0.4843
  170PVA    H6828843   2.541   2.658   2.164  1.9335 -2.8370  1.6842
  170PVA    C3528844   2.425   2.526   2.280 -2.0152  0.2336 -0.1364
  170PVA    H6928845   2.376   2.545   2.376 -0.8473 -0.9337  0.7463
  170PVA    O1228846   2.550   2.451   2.285  0.9350 -0.0037 -0.8197
  170PVA    H7028847   2.540   2.355   2.273 -0.9379 -0.0123  0.4320
  170PVA    C3628848   2.336   2.468   2.165  0.2007  0.5855 -0.5444
  170PVA    H7128849   2.266   2.539   2.120 -1.5315 -1.9529 -2.1640
  170PVA    H7228850   2.409   2.452   2.084  0.6920 -1.8387  0.2927
  170PVA    C3728851   2.256   2.341   2.198 -1.1187  0.3883 -0.8374
  170PVA    H7328852   2.232   2.306   2.097 -0.4457 -1.0443 -0.5303
  170PVA    H7428853   2.162   2.370   2.247 -0.8044 -1.4101  0.9940
  170PVA    C3828854   2.316   2.222   2.278 -1.0710 -0.4292  0.6047
  170PVA    H7528855   2.344   2.257   2.378  2.3764  0.8039 -0.6273
  170PVA    O1328856   2.435   2.168   2.214  0.1858  0.1961  0.1046
  170PVA    H7628857   2.468   2.101   2.276  4.9002  2.7035  0.7846
  170PVA    C3928858   2.207   2.118   2.308  0.4703  0.9085 -1.1824
  170PVA    H7728859   2.156   2.078   2.220 -3.5606  0.9525  0.8723
  170PVA    H7828860   2.122   2.174   2.350 -0.1612 -2.1621  2.1338
  170PVA    C4028861   2.256   2.003   2.399 -0.9400  0.7824  0.8913
  170PVA    H7928862   2.172   1.933   2.412 -1.0339  1.1009  2.1882
  170PVA    H8028863   2.276   2.050   2.496  2.7211 -0.2810  0.8222
  170PVA    C4128864   2.366   1.901   2.358 -0.7512 -0.3322  0.3544
  170PVA    H8128865   2.359   1.817   2.428 -3.4462 -1.1239 -0.7424
  170PVA    O1428866   2.498   1.966   2.376 -0.1047  0.1792  0.0203
  170PVA    H8228867   2.559   1.891   2.365 -0.1698 -0.5037  3.2494
  170PVA    C4228868   2.349   1.849   2.214  0.8562  0.8164 -0.1386
  170PVA    H8328869   2.251   1.801   2.203  0.5611  1.4797 -0.4728
  170PVA    H8428870   2.355   1.934   2.145 -1.3168  1.1435  0.0136
  170PVA    C4328871   2.466   1.766   2.151  0.0852 -0.1550 -0.7507
  170PVA    H8528872   2.444   1.659   2.161 -0.5260  0.1648  2.7375
  170PVA    H8628873   2.560   1.784   2.205 -0.0407  0.0404 -0.5921
  170PVA    C4428874   2.525   1.782   2.007  0.4167 -0.6135 -0.0628
  170PVA    H8728875   2.454   1.740   1.935  0.4733 -3.0790  1.2160
  170PVA    O1528876   2.661   1.702   2.013  1.1330 -0.3910  0.0831
  170PVA    H8828877   2.632   1.610   2.001 -0.2405  0.3018 -2.4240
  170PVA    C4528878   2.552   1.922   1.956 -0.4673  0.9002  0.6756
  170PVA    H8928879   2.612   1.970   2.034 -1.3198 -1.7887  3.1571
  170PVA    H9028880   2.461   1.982   1.944  0.9328  3.5440  2.3144
  170PVA    C4628881   2.616   1.947   1.811  0.6470 -0.0600  0.5171
  170PVA    H9128882   2.703   1.884   1.791 -1.9579 -3.0611 -2.4624
  170PVA    H9228883   2.637   2.055   1.810 -0.6497  0.2169 -0.5023
  170PVA    C4728884   2.526   1.909   1.690 -0.2105  0.7850 -0.3077
  170PVA    H9328885   2.484   1.809   1.710 -0.0335 -0.6307 -5.5744
  170PVA    O1628886   2.415   1.998   1.705 -0.2939  0.2657 -0.3186
  170PVA    H9428887   2.454   2.086   1.719  3.4713 -1.5306  2.1145
  170PVA    C4828888   2.592   1.893   1.557 -1.0247  0.7234 -0.2682
  170PVA    H9528889   2.647   1.980   1.520  0.5261 -0.0377  0.1530
  170PVA    H9628890   2.666   1.812   1.551 -1.8202 -0.0359 -0.1150
  170PVA    C4928891   2.481   1.854   1.453 -0.7822  0.3399 -0.1401
  170PVA    H9728892   2.400   1.926   1.465  1.6244  3.0443  1.3025
  170PVA    H9828893   2.525   1.865   1.353  1.3644 -5.4424 -0.2663
  170PVA    C5028894   2.420   1.710   1.444  0.3074  0.1200  0.2960
  170PVA    H9928895   2.345   1.720   1.365  2.0724  0.9443 -1.3686
  170PVA    O1728896   2.339   1.670   1.554  0.2617  0.2821 -0.8552
  170PVA   H10028897   2.264   1.731   1.568 -2.0989 -2.9807  2.5511
  170PVA    C5128898   2.505   1.586   1.420  0.3820 -0.4297 -0.9768
  170PVA   H10128899   2.562   1.571   1.513 -2.2213 -0.4334  0.7198
  170PVA   H10228900   2.442   1.501   1.392 -2.7282  1.6405 -0.7531
  171PVA     C128901   7.527   5.337   3.219 -0.0441 -0.7158 -0.6475
  171PVA     H128902   7.537   5.254   3.290  4.1587 -1.3350 -1.7197
  171PVA     H228903   7.534   5.410   3.300  0.1912 -3.5226  2.0841
  171PVA     C228904   7.395   5.348   3.150 -0.3744 -0.6126  1.1080
  171PVA     H328905   7.340   5.427   3.205  0.2888  0.6539  0.0063
  171PVA     O128906   7.332   5.219   3.147  0.5329  0.2832 -0.4532
  171PVA     H428907   7.328   5.201   3.243  0.3782 -0.7386 -0.6381
  171PVA     C328908   7.386   5.412   3.009  1.1609 -0.8141  0.8931
  171PVA     H528909   7.393   5.327   2.940  2.0114  1.2226 -1.7218
  171PVA     H628910   7.470   5.483   2.998  0.3218  0.3428  1.7698
  171PVA     C428911   7.242   5.476   2.980  0.0938  0.7696 -0.0848
  171PVA     H728912   7.216   5.491   2.874 -0.9974  2.9738  0.4214
  171PVA     H828913   7.170   5.402   3.016  3.3733 -1.8390  1.6264
  171PVA     C528914   7.189   5.602   3.058  0.7733  0.0543 -0.2470
  171PVA     H928915   7.199   5.571   3.163 -1.0096 -5.4379 -1.3475
  171PVA     O228916   7.259   5.717   3.015  0.5403 -0.1312  0.4609
  171PVA    H1028917   7.287   5.690   2.926  0.5938  1.7150 -0.1209
  171PVA     C628918   7.037   5.638   3.032 -0.3575  0.1043  0.6110
  171PVA    H1128919   7.024   5.676   2.930  0.4633 -1.2463 -0.0296
  171PVA    H1228920   6.996   5.537   3.031  0.7153 -0.3417  0.0665
  171PVA     C728921   6.970   5.716   3.142 -0.0079 -0.7212  0.1653
  171PVA    H1328922   6.864   5.708   3.114  0.3848  2.0732 -2.7733
  171PVA    H1428923   6.988   5.661   3.235  4.9663 -0.8088 -0.5761
  171PVA     C828924   6.991   5.864   3.145 -0.5481  0.0962 -0.1671
  171PVA    H1528925   7.023   5.898   3.045  0.8328 -2.9517 -0.8662
  171PVA     O328926   7.116   5.867   3.212  0.0913 -0.2496 -0.2060
  171PVA    H1628927   7.188   5.826   3.162 -1.8919 -2.7112 -1.2202
  171PVA     C928928   6.881   5.952   3.214  0.3097 -0.9266 -0.4803
  171PVA    H1728929   6.805   5.950   3.135  2.5888 -1.1394 -2.8020
  171PVA    H1828930   6.895   6.061   3.214 -3.4747 -0.2784  0.2425
  171PVA    C1028931   6.836   5.911   3.349  0.2049  0.2127  0.0106
  171PVA    H1928932   6.938   5.890   3.385  0.3090  0.8831  0.1295
  171PVA    H2028933   6.784   5.815   3.359  1.5629 -0.4900  0.7137
  171PVA    C1128934   6.759   6.007   3.429  0.1268 -0.9651 -0.1498
  171PVA    H2128935   6.797   6.108   3.410  0.4080 -0.5049  2.4300
  171PVA     O428936   6.621   5.997   3.382  0.0294 -0.5036  0.5201
  171PVA    H2228937   6.573   6.081   3.393  0.5972 -0.3197  1.7413
  171PVA    C1228938   6.769   5.986   3.580  1.3921  0.2526 -0.1132
  171PVA    H2328939   6.735   5.886   3.610 -3.8272  1.4058 -1.1000
  171PVA    H2428940   6.867   6.004   3.625  0.7119 -0.1642  1.6063
  171PVA    C1328941   6.678   6.083   3.667 -0.0033  1.2039  0.4924
  171PVA    H2528942   6.702   6.074   3.774  1.3289  1.7645  0.2624
  171PVA    H2628943   6.572   6.054   3.673  0.5647 -0.7052  3.2624
  171PVA    C1428944   6.713   6.230   3.663  0.3878  0.3337 -0.6026
  171PVA    H2728945   6.823   6.225   3.663  0.3561 -2.6703  1.5356
  171PVA     O528946   6.656   6.297   3.555  0.7017  0.4484 -0.4255
  171PVA    H2828947   6.710   6.372   3.523  1.1339 -0.3776 -1.7264
  171PVA    C1528948   6.663   6.320   3.785  0.9984  0.1600  0.2403
  171PVA    H2928949   6.663   6.426   3.758  0.6489  0.6497  1.9867
  171PVA    H3028950   6.738   6.320   3.865 -0.1051  1.6521  1.3325
  171PVA    C1628951   6.527   6.270   3.858  0.1618  0.3263 -0.5613
  171PVA    H3128952   6.552   6.208   3.944 -1.8517  1.1295  0.6680
  171PVA    H3228953   6.462   6.222   3.784 -0.1014 -3.8907  2.0952
  171PVA    C1728954   6.442   6.387   3.903  0.1661 -0.1457  0.1964
  171PVA    H3328955   6.492   6.457   3.972 -0.9913  0.0363  0.8810
  171PVA     O628956   6.409   6.457   3.776  0.1363 -0.3059  0.0379
  171PVA    H3428957   6.432   6.389   3.711  3.5537  0.7768 -0.0792
  171PVA    C1828958   6.303   6.367   3.970 -0.1006  0.6474  0.4412
  171PVA    H3528959   6.262   6.293   3.901  1.0135 -0.0515  0.4955
  171PVA    H3628960   6.316   6.309   4.063  0.4441  1.8994  1.1789
  171PVA    C1928961   6.228   6.500   3.999 -0.5194 -0.8947  0.7528
  171PVA    H3728962   6.126   6.514   3.960 -0.5189  0.9363  1.3041
  171PVA    H3828963   6.276   6.580   3.941  0.6934 -1.3878  1.0530
  171PVA    C2028964   6.230   6.561   4.140 -0.1214  0.7403  1.5124
  171PVA    H3928965   6.335   6.593   4.146  0.6263 -0.8631 -1.2891
  171PVA     O728966   6.206   6.469   4.236  0.5991  0.3021 -0.4188
  171PVA    H4028967   6.259   6.401   4.192  0.3052  1.1919 -2.2621
  171PVA    C2128968   6.143   6.683   4.164  0.2292 -0.2524 -0.9469
  171PVA    H4128969   6.039   6.668   4.195  0.4835  2.2096  1.5289
  171PVA    H4228970   6.127   6.742   4.073 -3.4146  1.6808  0.7221
  171PVA    C2228971   6.210   6.788   4.262  0.1472  0.0313 -0.0846
  171PVA    H4328972   6.230   6.747   4.361 -0.2383  3.8217  1.7523
  171PVA    H4428973   6.301   6.825   4.213 -1.6052 -1.2506 -4.8907
  171PVA    C2328974   6.140   6.920   4.293  0.3008  0.3716 -0.8353
  171PVA    H4528975   6.169   6.970   4.386 -2.0338 -2.0353  1.3546
  171PVA     O828976   6.169   7.000   4.178  0.5265 -0.6591  0.0516
  171PVA    H4628977   6.098   7.066   4.176  1.5137  0.4704  0.9734
  171PVA    C2428978   5.988   6.904   4.304  0.1482 -0.1596  0.1248
  171PVA    H4728979   5.947   6.859   4.213 -0.6157 -2.2258  1.4086
  171PVA    H4828980   5.969   6.826   4.379  0.1747  0.4632  0.7852
  171PVA    C2528981   5.904   7.032   4.347  0.1326  0.7689 -1.4505
  171PVA    H4928982   5.918   7.132   4.306 -3.0115  1.3492 -1.3353
  171PVA    H5028983   5.933   7.049   4.452  1.9012 -1.4757 -1.4804
  171PVA    C2628984   5.750   7.027   4.343 -0.5394 -1.0228  0.6713
  171PVA    H5128985   5.724   6.996   4.242  3.8125 -0.8500 -0.6974
  171PVA     O928986   5.705   6.928   4.429 -0.5876  0.4016  0.3404
  171PVA    H5228987   5.726   6.840   4.393  3.7622  2.0492 -1.8800
  171PVA    C2728988   5.681   7.160   4.381  0.6611  0.5496  0.7587
  171PVA    H5328989   5.572   7.148   4.387 -0.5123  6.1528 -1.9531
  171PVA    H5428990   5.700   7.223   4.293 -0.0270 -0.7635 -0.3596
  171PVA    C2828991   5.724   7.228   4.515  0.2490  0.3007  1.1311
  171PVA    H5528992   5.757   7.149   4.584 -0.9986  0.1880  1.6251
  171PVA    H5628993   5.813   7.288   4.491  0.4542 -1.0886 -1.9418
  171PVA    C2928994   5.620   7.309   4.586  1.1848 -0.2283  0.5581
  171PVA    H5728995   5.521   7.263   4.580 -0.8486  3.7980 -0.4666
  171PVA    O1028996   5.606   7.440   4.526 -0.7254 -0.8848 -0.0270
  171PVA    H5828997   5.610   7.447   4.429 -1.6283  2.7493  0.0625
  171PVA    C3028998   5.653   7.320   4.729 -0.5603 -0.4561  1.3171
  171PVA    H5928999   5.662   7.222   4.777  0.6831  2.0125  6.8811
  171PVA    H6029000   5.748   7.375   4.729 -1.1143  0.5663  0.2482
  171PVA    C3129001   5.548   7.403   4.803 -0.0738 -0.5620 -1.0055
  171PVA    H6129002   5.520   7.500   4.760  2.1118  0.7184  0.2478
  171PVA    H6229003   5.461   7.338   4.792  0.5406 -1.2573 -1.9212
  171PVA    C3229004   5.608   7.413   4.945 -0.8190 -0.8776 -0.5112
  171PVA    H6329005   5.700   7.473   4.951  0.1947 -2.4666  0.9018
  171PVA    O1129006   5.630   7.280   5.014  0.7417 -0.0384 -0.5190
  171PVA    H6429007   5.662   7.211   4.953  2.5562  0.9595 -0.7630
  171PVA    C3329008   5.502   7.486   5.032  0.5924  0.4116  0.4478
  171PVA    H6529009   5.424   7.409   5.041  0.0162  0.7250 -1.4446
  171PVA    H6629010   5.477   7.573   4.970 -2.2320  1.7117  3.1199
  171PVA    C3429011   5.558   7.564   5.153  0.5604 -0.7673 -1.0934
  171PVA    H6729012   5.658   7.520   5.164  1.1497  0.0955 -2.6570
  171PVA    H6829013   5.575   7.672   5.145  0.0594 -0.1899  3.0757
  171PVA    C3529014   5.479   7.535   5.284 -0.9689  0.9280 -0.2300
  171PVA    H6929015   5.517   7.453   5.346 -3.8904 -1.0401 -0.8860
  171PVA    O1229016   5.347   7.517   5.260  0.3146  0.5048  0.4931
  171PVA    H7029017   5.305   7.604   5.260  1.5574  1.1336 -0.2197
  171PVA    C3629018   5.487   7.655   5.390  0.9368 -0.1595  1.0729
  171PVA    H7129019   5.590   0.005   5.404  0.7784  0.2342  1.2851
  171PVA    H7229020   5.429   0.054   5.349  2.8772  0.8240  0.1950
  171PVA    C3729021   5.418   7.620   5.527  0.8262 -0.1541 -0.2789
  171PVA    H7329022   5.493   7.600   5.604  1.0964 -1.3125 -0.8349
  171PVA    H7429023   5.370   7.523   5.507  3.1043 -1.4773  0.3676
  171PVA    C3829024   5.315   0.037   5.587 -0.0618 -0.0347  0.0054
  171PVA    H7529025   5.303   0.125   5.521  0.8909 -0.9464 -1.4423
  171PVA    O1329026   5.204   7.632   5.584  0.5674  0.5089 -0.1885
  171PVA    H7629027   5.203   7.576   5.504 -2.0240  2.9180 -2.0243
  171PVA    C3929028   5.341   0.072   5.735 -0.3313 -2.3557  0.3667
  171PVA    H7729029   5.363   7.668   5.795  3.7725 -2.9050 -1.6127
  171PVA    H7829030   5.433   0.132   5.744  0.6231 -3.9942  2.2069
  171PVA    C4029031   5.236   0.157   5.815 -0.1072  1.0642  0.7177
  171PVA    H7929032   5.238   0.265   5.799 -3.9870  1.5092  2.2694
  171PVA    H8029033   5.142   0.111   5.780  1.0976 -0.9881 -0.0291
  171PVA    C4129034   5.252   0.134   5.962 -1.0955  1.0336 -0.1825
  171PVA    H8129035   5.205   0.042   5.998  3.0077 -0.6633  1.3610
  171PVA    O1429036   5.396   0.128   5.995  0.2134  0.7086  0.0120
  171PVA    H8229037   5.411   0.052   6.053 -0.3327 -0.8122 -1.7645
  171PVA    C4229038   5.194   0.251   6.050  0.2381 -0.6959  0.3858
  171PVA    H8329039   5.243   0.346   6.026 -0.0271  0.1375  2.8972
  171PVA    H8429040   5.088   0.267   6.028 -0.3651  1.0427  3.8868
  171PVA    C4329041   5.187   0.220   6.203 -0.0974 -0.3265 -0.8346
  171PVA    H8529042   5.247   0.129   6.217  0.4754 -0.0196 -1.2330
  171PVA    H8629043   5.091   0.191   6.247 -1.2896  0.8861 -2.5175
  171PVA    C4429044   5.254   0.324   6.306  0.8161  0.5396  0.6157
  171PVA    H8729045   5.243   0.277   6.405 -4.3988  3.1806  1.6574
  171PVA    O1529046   5.390   0.332   6.275 -0.9985  0.0613 -0.1795
  171PVA    H8829047   5.396   0.316   6.179 -1.2185  0.1944 -0.2149
  171PVA    C4529048   5.189   0.459   6.302 -0.6035  1.5201 -0.9596
  171PVA    H8929049   5.203   0.496   6.199 -0.4374  0.0686 -1.4867
  171PVA    H9029050   5.260   0.508   6.370 -0.5226 -0.7854  0.7509
  171PVA    C4629051   5.043   0.501   6.343  0.6640  0.1760  0.9941
  171PVA    H9129052   4.969   0.437   6.292 -2.7824  1.7144  3.6226
  171PVA    H9229053   5.022   0.599   6.298 -0.5922 -1.1623 -1.5777
  171PVA    C4729054   5.008   0.514   6.495 -0.1165 -0.7883 -0.6906
  171PVA    H9329055   4.899   0.526   6.487  0.0165  1.8351  0.5126
  171PVA    O1629056   5.079   0.636   6.549  0.2884  0.5820  0.8913
  171PVA    H9429057   5.160   0.652   6.497  0.0054  0.0109  0.2521
  171PVA    C4829058   5.034   0.386   6.581  0.8685  0.2478 -0.4316
  171PVA    H9529059   5.034   0.305   6.507  1.0648 -0.2703  0.1212
  171PVA    H9629060   5.137   0.385   6.619  1.5279 -0.9204 -2.1266
  171PVA    C4929061   4.948   0.383   6.708 -0.4289  0.5550  0.3890
  171PVA    H9729062   4.968   0.291   6.765 -0.3970 -0.1481 -0.7416
  171PVA    H9829063   4.842   0.378   6.680 -0.4254  1.5735  0.1493
  171PVA    C5029064   4.965   0.488   6.813 -0.8185 -0.3547 -0.1185
  171PVA    H9929065   4.939   0.580   6.759  1.0065 -0.3010 -0.9651
  171PVA    O1729066   5.098   0.487   6.858  0.5888 -0.5287 -0.3795
  171PVA   H10029067   5.173   0.484   6.796  3.0986 -1.6587  2.4431
  171PVA    C5129068   4.874   0.460   6.938 -0.2580 -0.6636  1.0272
  171PVA   H10129069   4.768   0.459   6.909  1.1249 -0.1652 -5.5117
  171PVA   H10229070   4.907   0.362   6.976  0.1465 -1.3245 -0.9403
  172PVA     C129071   3.028   2.558   1.421  0.3854 -0.0354 -0.4049
  172PVA     H129072   3.013   2.625   1.508 -1.9688  2.3625 -2.4753
  172PVA     H229073   3.119   2.506   1.451  1.9778  3.7182  2.0920
  172PVA     C229074   3.069   2.653   1.305 -0.1371  0.2844 -0.9167
  172PVA     H329075   3.055   2.595   1.213  2.2222 -2.5707  0.3610
  172PVA     O129076   2.973   2.750   1.309  0.8896 -0.2942  0.0412
  172PVA     H429077   2.949   2.761   1.216 -0.2744  0.3803  0.3924
  172PVA     C329078   3.208   2.707   1.319  0.6133 -0.5689  0.4029
  172PVA     H529079   3.211   2.784   1.398 -2.0561 -1.1695  1.1730
  172PVA     H629080   3.276   2.624   1.343  1.0124 -0.5677 -0.6763
  172PVA     C429081   3.258   2.774   1.194 -0.2141  0.0487  0.9066
  172PVA     H729082   3.220   2.720   1.106 -2.8766  0.0524  1.9669
  172PVA     H829083   3.212   2.872   1.210  2.2978  1.5318 -0.4460
  172PVA     C529084   3.417   2.784   1.206 -0.0364 -0.0720  0.7568
  172PVA     H929085   3.458   2.807   1.305  2.3099  2.2067 -0.5890
  172PVA     O229086   3.458   2.659   1.148 -0.1506 -0.8560 -0.8935
  172PVA    H1029087   3.407   2.594   1.199  1.8148 -1.6427  0.1795
  172PVA     C629088   3.474   2.899   1.120 -0.4175 -0.4116  0.6782
  172PVA    H1129089   3.492   2.863   1.018 -1.6991 -0.7204  0.5336
  172PVA    H1229090   3.403   2.983   1.113 -0.4345 -0.5647 -2.6387
  172PVA     C729091   3.611   2.952   1.172  0.2709  0.2558  0.7982
  172PVA    H1329092   3.591   2.989   1.273  2.4774 -0.0384  1.4117
  172PVA    H1429093   3.659   3.036   1.120  0.3799  1.8895  3.3528
  172PVA     C829094   3.708   2.837   1.195 -0.3660  0.0386  0.0096
  172PVA    H1529095   3.665   2.778   1.277 -2.8895 -1.3822 -2.1904
  172PVA     O329096   3.732   2.763   1.076 -0.1693 -0.4171  0.4139
  172PVA    H1629097   3.669   2.690   1.087  1.1787 -1.2682  3.5072
  172PVA     C929098   3.850   2.882   1.254 -0.3369 -0.3919 -0.9858
  172PVA    H1729099   3.908   2.965   1.211  2.2083 -0.9417  1.1289
  172PVA    H1829100   3.806   2.918   1.348 -0.3291  0.7806 -1.4112
  172PVA    C1029101   3.948   2.773   1.299 -0.0209  0.1495 -0.4857
  172PVA    H1929102   3.908   2.681   1.343 -1.4021  1.5741  1.3474
  172PVA    H2029103   3.978   2.725   1.204  1.1787  1.0863 -0.6094
  172PVA    C1129104   4.068   2.816   1.401  0.9605 -0.6092 -1.3552
  172PVA    H2129105   4.025   2.897   1.462  2.3625 -0.7964 -0.0525
  172PVA     O429106   4.168   2.884   1.336 -0.3017  0.4087  0.2465
  172PVA    H2229107   4.247   2.899   1.390 -0.4395  0.0534  0.5578
  172PVA    C1229108   4.100   2.692   1.498 -0.5972 -0.0389  0.2125
  172PVA    H2329109   4.198   2.718   1.540 -1.6276  2.8951  1.0114
  172PVA    H2429110   4.032   2.682   1.584 -2.3824 -2.1439 -1.3224
  172PVA    C1329111   4.115   2.553   1.429  0.4428 -0.7647 -0.0462
  172PVA    H2529112   4.199   2.498   1.473  1.3057 -0.2120 -0.9590
  172PVA    H2629113   4.026   2.494   1.454  0.5313 -1.7343 -1.8303
  172PVA    C1429114   4.155   2.526   1.283  0.0435 -0.2367 -0.2717
  172PVA    H2729115   4.063   2.536   1.224  0.0108 -3.1068 -0.8024
  172PVA     O529116   4.250   2.636   1.245  0.7706  0.2844 -0.1562
  172PVA    H2829117   4.207   2.722   1.255  1.5548  0.6231  0.4032
  172PVA    C1529118   4.208   2.378   1.256 -0.1456  0.1435 -1.3589
  172PVA    H2929119   4.127   2.306   1.274 -3.5954  4.2113  1.3874
  172PVA    H3029120   4.286   2.342   1.324 -3.2461 -4.4329  0.2898
  172PVA    C1629121   4.266   2.364   1.129  0.0479 -0.8465  0.8719
  172PVA    H3129122   4.189   2.403   1.060  1.9629  2.4124  0.3925
  172PVA    H3229123   4.346   2.438   1.121 -1.2005  0.3578 -1.8443
  172PVA    C1729124   4.329   2.224   1.104  0.1806 -0.6145  1.2043
  172PVA    H3329125   4.422   2.214   1.162 -0.5796 -1.2173  2.3689
  172PVA     O629126   4.233   2.130   1.150 -0.0911 -0.0403  0.7544
  172PVA    H3429127   4.250   2.068   1.223  1.9756 -2.5529 -1.6516
  172PVA    C1829128   4.353   2.197   0.949 -0.4989 -0.9674  0.6139
  172PVA    H3529129   4.269   2.221   0.883  0.8599  2.3359 -0.1534
  172PVA    H3629130   4.385   2.095   0.926  4.6205  1.0144 -2.9207
  172PVA    C1929131   4.478   2.278   0.882  0.5687 -0.1326 -0.3015
  172PVA    H3729132   4.470   2.379   0.925  1.7735 -1.5964  3.8818
  172PVA    H3829133   4.571   2.246   0.931  1.1991  1.2523 -0.5441
  172PVA    C2029134   4.474   2.271   0.725 -1.8832 -0.9684  0.3074
  172PVA    H3929135   4.410   2.357   0.700  1.1054  2.7693  4.0681
  172PVA     O729136   4.429   2.152   0.673  0.5894 -0.0630 -1.5077
  172PVA    H4029137   4.333   2.141   0.679  0.5319 -0.1557 -2.4684
  172PVA    C2129138   4.612   2.306   0.651  1.4307 -0.6920 -0.4223
  172PVA    H4129139   4.683   2.225   0.670 -1.3693 -3.0618  0.7703
  172PVA    H4229140   4.640   2.402   0.695 -0.8617 -1.2358  2.5595
  172PVA    C2229141   4.599   2.310   0.499  0.0638  0.2350  0.2097
  172PVA    H4329142   4.533   2.226   0.470  0.8236  0.3659 -2.1015
  172PVA    H4429143   4.543   2.401   0.476 -0.1931 -0.7260 -3.7313
  172PVA    C2329144   4.724   2.292   0.402 -0.1945  0.1056 -0.1618
  172PVA    H4529145   4.800   2.367   0.427  1.5027 -1.3367 -0.8137
  172PVA     O829146   4.801   2.166   0.425  0.5497 -1.2253 -0.8069
  172PVA    H4629147   4.733   2.106   0.459  1.8448 -1.8011  0.8816
  172PVA    C2429148   4.698   2.302   0.247  0.2680  0.5768  0.1231
  172PVA    H4729149   4.674   2.404   0.215 -3.0288  0.5746  2.1469
  172PVA    H4829150   4.795   2.284   0.199  2.3162  2.4312  3.2429
  172PVA    C2529151   4.591   2.202   0.190 -0.4612 -0.6983 -0.1541
  172PVA    H4929152   4.500   2.262   0.174  0.2028  0.5567  0.6714
  172PVA    H5029153   4.575   2.126   0.268 -2.2072 -1.9463 -1.6377
  172PVA    C2629154   4.625   2.138   0.055  0.0647 -0.1371  0.5954
  172PVA    H5129155   4.604   2.206   8.069  1.6768 -0.6331 -0.2582
  172PVA     O929156   4.768   2.094   0.053  0.6430 -0.6059 -0.7558
  172PVA    H5229157   4.786   2.060   0.142 -0.8785  2.9933  1.1309
  172PVA    C2729158   4.530   2.014   0.039 -0.2025 -1.3090 -0.8330
  172PVA    H5329159   4.577   1.942   8.068 -0.9142 -1.6076 -1.0179
  172PVA    H5429160   4.520   1.948   0.126 -2.4068 -2.5978 -1.9838
  172PVA    C2829161   4.384   2.057   8.082 -0.8724 -0.4149 -0.3342
  172PVA    H5529162   4.393   2.092   7.978 -0.2773  0.0432 -0.1407
  172PVA    H5629163   4.351   2.148   0.036  2.4592  1.2102 -0.8003
  172PVA    C2929164   4.284   1.952   0.019 -1.1756  0.6723 -0.0535
  172PVA    H5729165   4.340   1.858   0.017 -1.7743  0.1186  2.9345
  172PVA    O1029166   4.249   1.951   0.149  0.7772  0.0537 -0.0533
  172PVA    H5829167   4.190   2.025   0.170 -1.0633 -1.7571  1.5970
  172PVA    C3029168   4.154   1.940   8.029 -0.4926 -0.2723  0.0231
  172PVA    H5929169   4.129   2.046   8.017 -0.8736 -0.1358  1.7654
  172PVA    H6029170   4.172   1.914   7.924 -2.0645 -0.6451 -0.1824
  172PVA    C3129171   4.039   1.847   8.074 -0.4080 -0.1554 -0.4017
  172PVA    H6129172   4.081   1.790   0.061  1.8706  1.8302 -0.0727
  172PVA    H6229173   3.967   1.920   0.015  0.5414  0.1135  0.9557
  172PVA    C3229174   3.963   1.749   7.989  0.4282  0.4405 -1.5253
  172PVA    H6329175   3.865   1.743   8.037 -0.5986 -0.0923 -3.5807
  172PVA    O1129176   4.029   1.620   7.994 -0.5937  0.2398  0.9826
  172PVA    H6429177   4.106   1.633   8.052 -0.0809  0.7990  0.2074
  172PVA    C3329178   3.933   1.809   7.849 -1.2424 -0.5949 -1.1726
  172PVA    H6529179   4.027   1.839   7.800  0.1114 -1.1382  0.9083
  172PVA    H6629180   3.881   1.899   7.883  2.0513  0.9584  0.2635
  172PVA    C3429181   3.840   1.735   7.762  0.9242  0.1399 -0.1910
  172PVA    H6729182   3.819   1.636   7.806  5.0841  0.3966  2.9501
  172PVA    H6829183   3.749   1.795   7.773  1.0276  0.3427 -0.4425
  172PVA    C3529184   3.865   1.725   7.603  0.2464  0.1863 -1.5442
  172PVA    H6929185   3.943   1.794   7.569 -1.1073  2.2092 -0.7340
  172PVA    O1229186   3.748   1.765   7.529  0.0930 -0.3921  0.1927
  172PVA    H7029187   3.784   1.812   7.451 -0.2464 -1.9540 -0.9558
  172PVA    C3629188   3.897   1.576   7.553 -0.2981 -0.1769 -0.0005
  172PVA    H7129189   3.984   1.538   7.608  0.8887  1.4126 -0.7115
  172PVA    H7229190   3.811   1.509   7.568 -0.0376 -0.3281  0.9143
  172PVA    C3729191   3.917   1.559   7.400 -0.4528 -0.6717 -0.4086
  172PVA    H7329192   3.986   1.642   7.380  0.2329 -0.3930  2.6277
  172PVA    H7429193   3.828   1.576   7.339 -0.0798 -2.4417 -1.5286
  172PVA    C3829194   4.004   1.447   7.343 -0.9285 -0.0031 -0.5943
  172PVA    H7529195   3.991   1.363   7.413 -0.8876  1.7854  1.6824
  172PVA    O1329196   3.963   1.431   7.210 -0.1610  0.6892  0.5423
  172PVA    H7629197   3.913   1.350   7.191 -0.8116  1.3060 -0.4447
  172PVA    C3929198   4.152   1.494   7.360  0.8604 -0.3080 -0.1966
  172PVA    H7729199   4.194   1.570   7.292  2.0768 -1.0825 -0.3546
  172PVA    H7829200   4.145   1.552   7.453  1.0691  1.6142 -1.3084
  172PVA    C4029201   4.263   1.387   7.373 -0.1852  1.1397 -0.7529
  172PVA    H7929202   4.269   1.327   7.281 -4.2084 -1.7903  0.6093
  172PVA    H8029203   4.230   1.315   7.449 -2.5830 -2.2359 -4.5049
  172PVA    C4129204   4.405   1.434   7.414  0.7386 -0.2816 -0.1174
  172PVA    H8129205   4.399   1.484   7.511 -2.1804 -3.8924  1.8361
  172PVA    O1429206   4.435   1.535   7.310  0.2724  1.0865 -0.9641
  172PVA    H8229207   4.351   1.574   7.339 -1.7603 -3.9959  1.2380
  172PVA    C4229208   4.504   1.319   7.409  0.1171  0.2583  0.0366
  172PVA    H8329209   4.492   1.257   7.320 -0.0270  0.1005  0.1635
  172PVA    H8429210   4.599   1.373   7.409 -0.3353  1.1074  0.9841
  172PVA    C4329211   4.487   1.219   7.537 -0.6824 -1.4675  0.6244
  172PVA    H8529212   4.381   1.202   7.558 -1.2202  2.0816  1.4281
  172PVA    H8629213   4.526   1.275   7.623  3.4449 -0.2129 -1.7685
  172PVA    C4429214   4.569   1.092   7.513  0.3262 -0.3918 -1.0179
  172PVA    H8729215   4.518   1.018   7.450 -1.2364  0.0861 -0.3515
  172PVA    O1529216   4.694   1.129   7.449 -0.5465  0.4065  0.0699
  172PVA    H8829217   4.733   1.182   7.520  0.2105 -1.9257  1.4942
  172PVA    C4529218   4.595   1.001   7.640 -0.3579  0.5337  0.4433
  172PVA    H8929219   4.495   0.965   7.667  0.8669 -2.1635  1.7107
  172PVA    H9029220   4.636   1.070   7.716  3.2616 -0.3735 -0.5099
  172PVA    C4629221   4.705   0.895   7.611  0.1690  0.6330 -0.1529
  172PVA    H9129222   4.792   0.955   7.581 -0.5947  0.6694 -2.4502
  172PVA    H9229223   4.696   0.838   7.519 -2.6228  1.6358 -0.5957
  172PVA    C4729224   4.727   0.795   7.734 -0.1139 -0.3626 -0.1363
  172PVA    H9329225   4.640   0.728   7.729  1.1818 -2.0338 -2.6649
  172PVA    O1629226   4.732   0.868   7.851  1.4496  0.4317  0.2905
  172PVA    H9429227   4.827   0.872   7.870  1.1119 -0.2276  2.4295
  172PVA    C4829228   4.847   0.693   7.741 -0.4960  0.0297  0.7667
  172PVA    H9529229   4.835   0.627   7.828  2.3213 -2.7858 -0.8098
  172PVA    H9629230   4.934   0.761   7.740 -1.4465  1.3134 -1.2297
  172PVA    C4929231   4.871   0.593   7.622  0.9828  0.0071 -0.5691
  172PVA    H9729232   4.886   0.495   7.671 -0.4729  0.0225 -0.0442
  172PVA    H9829233   4.773   0.576   7.578  1.3493 -0.7276 -1.1232
  172PVA    C5029234   4.971   0.632   7.516 -0.0655  0.7006  0.2362
  172PVA    H9929235   4.982   0.739   7.496  0.5013  0.6137  0.0781
  172PVA    O1729236   5.096   0.587   7.561 -0.6343 -0.6375  0.1626
  172PVA   H10029237   5.159   0.621   7.495 -1.4091 -1.3590 -0.9907
  172PVA    C5129238   4.950   0.554   7.391  1.3763 -0.2409  0.0643
  172PVA   H10129239   4.974   0.448   7.411  3.0553 -0.8561 -4.1372
  172PVA   H10229240   5.025   0.603   7.327  1.8190  3.7646  3.2924
  173PVA     C129241   2.540   2.474   1.269 -0.5270  1.1970 -0.3156
  173PVA     H129242   2.476   2.477   1.358 -0.3332 -2.4262  0.1024
  173PVA     H229243   2.507   2.394   1.201 -1.1126  0.8370  0.3805
  173PVA     C229244   2.531   2.611   1.211 -0.2206 -0.8393 -1.1829
  173PVA     H329245   2.608   2.630   1.136 -1.7603  1.5881 -2.2503
  173PVA     O129246   2.546   2.704   1.331 -0.3030  0.5469 -0.0489
  173PVA     H429247   2.508   2.790   1.304  1.9269  1.3622 -0.8215
  173PVA     C329248   2.391   2.631   1.150  0.0228  0.2616  0.0738
  173PVA     H529249   2.297   2.638   1.207 -2.2103  3.9551 -3.4825
  173PVA     H629250   2.375   2.547   1.082 -1.0591 -0.2620  0.9334
  173PVA     C429251   2.391   2.750   1.055  1.0483 -0.3433 -0.4541
  173PVA     H729252   2.496   2.775   1.032  1.4099  0.4320  1.8122
  173PVA     H829253   2.347   2.718   0.960 -0.9920  0.5545  0.1321
  173PVA     C529254   2.319   2.875   1.113  0.6738  0.7609  0.5811
  173PVA     H929255   2.219   2.841   1.142 -1.0483  4.9543  0.2071
  173PVA     O229256   2.385   2.928   1.221  0.7088  0.5346  0.4093
  173PVA    H1029257   2.326   2.932   1.298  1.7298  2.8691  1.1584
  173PVA     C629258   2.320   2.986   1.011 -0.2458  0.0781  0.1100
  173PVA    H1129259   2.426   3.009   0.990 -1.1899  2.4919 -2.6606
  173PVA    H1229260   2.277   2.931   0.927  1.9252 -2.7597  0.7092
  173PVA     C729261   2.250   3.115   1.059  0.7421 -1.0042  0.1974
  173PVA    H1329262   2.331   3.170   1.108  1.7108 -0.3792 -1.9785
  173PVA    H1429263   2.167   3.081   1.123 -0.1206  3.7601  2.0440
  173PVA     C829264   2.208   3.195   0.931 -0.3149  0.9409  1.4140
  173PVA    H1529265   2.232   3.133   0.844  2.0297  0.5108  2.2932
  173PVA     O329266   2.272   3.327   0.919 -0.3913  1.0784 -0.3941
  173PVA    H1629267   2.217   3.376   0.855 -1.9635  4.1180  2.9516
  173PVA     C929268   2.053   3.208   0.922  0.0202  0.6520  0.3144
  173PVA    H1729269   2.023   3.273   1.005 -1.6690 -1.7823  1.7517
  173PVA    H1829270   2.006   3.109   0.928 -1.1725  1.1747 -0.1892
  173PVA    C1029271   2.000   3.259   0.787 -0.3507  1.1376  0.1470
  173PVA    H1929272   2.026   3.359   0.750 -1.7644  0.2861 -3.6750
  173PVA    H2029273   2.027   3.181   0.715 -3.7939  0.1897 -0.3173
  173PVA    C1129274   1.842   3.256   0.762 -0.1014 -0.6787  0.5891
  173PVA    H2129275   1.805   3.153   0.752  1.2718 -1.2346  1.0203
  173PVA     O429276   1.807   3.328   0.645  0.9530 -0.0367  0.3491
  173PVA    H2229277   1.815   3.423   0.666  2.4162  0.3243 -1.5043
  173PVA    C1229278   1.766   3.304   0.884 -0.6131 -0.0155 -0.4921
  173PVA    H2329279   1.831   3.382   0.927 -1.6586 -0.2828  1.7072
  173PVA    H2429280   1.794   3.222   0.951  0.7339 -1.1110 -2.3204
  173PVA    C1329281   1.633   3.363   0.854 -0.7703 -0.6225  0.2319
  173PVA    H2529282   1.567   3.286   0.813 -0.2728  0.0261 -1.9629
  173PVA    H2629283   1.639   3.437   0.774  0.9538  0.1192  0.9981
  173PVA    C1429284   1.568   3.437   0.982  0.2071  0.5676 -0.6712
  173PVA    H2729285   1.651   3.488   1.032  0.0370 -1.4564  1.8643
  173PVA     O529286   1.508   3.351   1.071 -1.4461  0.2308  0.1203
  173PVA    H2829287   1.427   3.307   1.041 -1.0995 -0.1927 -0.2048
  173PVA    C1529288   1.475   3.544   0.926  0.0381  0.3087  0.3420
  173PVA    H2929289   1.383   3.492   0.899 -0.3694 -0.1573  2.4141
  173PVA    H3029290   1.514   3.587   0.833 -3.0232  1.1242 -0.6660
  173PVA    C1629291   1.437   3.668   1.016 -0.2913 -0.3201 -0.0743
  173PVA    H3129292   1.518   3.693   1.086  0.4692 -0.3345 -0.9286
  173PVA    H3229293   1.427   3.752   0.946 -2.0719  0.8428  1.4654
  173PVA    C1729294   1.304   3.643   1.076 -1.6747 -0.6714 -0.1471
  173PVA    H3329295   1.232   3.617   0.997 -1.4168 -0.1734 -0.5556
  173PVA     O629296   1.311   3.542   1.175 -0.2111 -0.0098 -0.1360
  173PVA    H3429297   1.318   3.455   1.134  0.4633 -0.5725  1.1270
  173PVA    C1829298   1.257   3.788   1.117  0.7486  0.1203  0.4272
  173PVA    H3529299   1.303   3.867   1.057  4.1184  0.8366  3.5858
  173PVA    H3629300   1.309   3.817   1.209 -1.3741  5.1785  0.3846
  173PVA    C1929301   1.111   3.790   1.142  0.5925  0.5371 -0.5140
  173PVA    H3729302   1.076   3.694   1.183  2.2780  1.3859  3.4085
  173PVA    H3829303   1.086   3.847   1.233 -1.2525 -0.7737 -0.1413
  173PVA    C2029304   1.011   3.833   1.021  0.3558  0.0883 -0.3131
  173PVA    H3929305   1.058   3.772   0.943  0.2776  2.5412 -2.4371
  173PVA     O729306   1.032   3.965   0.992 -0.3796 -0.9221 -0.0361
  173PVA    H4029307   1.029   4.013   1.077  1.0061 -1.6287  0.4318
  173PVA    C2129308   0.857   3.785   1.053  0.1483  0.1008  0.6178
  173PVA    H4129309   0.857   3.780   1.162  2.2381 -2.5282  0.5895
  173PVA    H4229310   0.841   3.681   1.020 -0.4146  0.4695 -0.3183
  173PVA    C2229311   0.739   3.875   1.009  0.4270 -1.0367  2.0818
  173PVA    H4329312   0.728   3.966   1.069 -3.0505  0.6034 -0.7086
  173PVA    H4429313   0.775   3.931   0.922  0.4155 -2.7574  0.9296
  173PVA    C2329314   0.599   3.822   0.976 -0.8244 -0.7887  0.7544
  173PVA    H4529315   0.617   3.777   0.878  4.2431 -1.3981  1.6770
  173PVA     O829316   0.573   3.737   1.089  0.4048  1.0546 -0.0863
  173PVA    H4629317   0.646   3.672   1.082  0.7079  1.3582  0.2526
  173PVA    C2429318   0.494   3.937   0.947 -0.3427 -0.3654 -0.6725
  173PVA    H4729319   0.502   4.015   1.024 -1.3359 -2.4903  1.7119
  173PVA    H4829320   0.508   3.984   0.849 -2.0430  0.8731 -0.3605
  173PVA    C2529321   0.342   3.892   0.953 -0.9871 -0.2718 -0.6441
  173PVA    H4929322   0.332   3.804   0.890 -5.3752 -1.3576  1.2288
  173PVA    H5029323   0.313   3.865   1.055  3.2825 -2.8004  0.1471
  173PVA    C2629324   0.232   3.992   0.900  0.0287  0.7460 -1.1997
  173PVA    H5129325   0.263   4.029   0.801  4.3573 -0.0299 -0.3221
  173PVA     O929326   0.215   4.100   0.997  0.1583  0.0377 -0.1228
  173PVA    H5229327   0.300   4.147   1.003 -0.1027  1.2826 -3.6937
  173PVA    C2729328   0.095   3.918   0.891  1.5467 -0.1891  0.3131
  173PVA    H5329329   0.023   3.998   0.871  0.3957 -0.8615  1.5819
  173PVA    H5429330   0.068   3.887   0.993  0.5873  0.0181  0.1371
  173PVA    C2829331   0.076   3.799   0.797 -0.1489  0.2090  0.3403
  173PVA    H5529332   0.154   3.806   0.720  0.7836 -1.9116  1.0200
  173PVA    H5629333   0.114   3.713   0.854 -0.4843  0.2135  0.5706
  173PVA    C2929334   7.702   3.757   0.726  0.5940 -0.2013  0.7741
  173PVA    H5729335   7.652   3.851   0.698 -0.8689 -0.2458  3.0572
  173PVA    O1029336   7.614   3.671   0.793 -1.0463  0.3587 -0.2093
  173PVA    H5829337   7.686   3.612   0.822 -3.1398 -2.8548 -0.9960
  173PVA    C3029338   7.721   3.702   0.578  0.3196 -1.5346 -0.4209
  173PVA    H5929339   7.634   3.739   0.522 -1.4228 -4.1023  0.4076
  173PVA    H6029340   0.039   3.759   0.536 -2.1388  1.1136 -2.1135
  173PVA    C3129341   7.743   3.549   0.581  0.4742 -0.3484 -0.5000
  173PVA    H6129342   0.081   3.540   0.615 -0.2328 -1.9175  1.3663
  173PVA    H6229343   7.676   3.488   0.643 -0.7662  1.8413  0.4325
  173PVA    C3229344   7.720   3.495   0.433 -0.3481  0.0956 -1.0677
  173PVA    H6329345   0.029   3.549   0.373  1.4624  2.4758  2.8630
  173PVA    O1129346   7.589   3.521   0.392 -0.0240  1.0999 -1.3628
  173PVA    H6429347   7.564   3.435   0.354 -3.0000 -0.5558  3.4340
  173PVA    C3329348   7.750   3.340   0.408 -0.0848 -0.5830  0.3056
  173PVA    H6529349   0.087   3.309   0.431  0.4019  1.4192  1.0819
  173PVA    H6629350   7.729   3.321   0.302  1.3601 -1.1970  0.1195
  173PVA    C3429351   7.648   3.253   0.482  0.6863 -0.5557  0.0754
  173PVA    H6729352   7.592   3.289   0.569 -1.9729 -6.0281  1.0181
  173PVA    H6829353   7.561   3.250   0.416  1.1364  1.4343 -0.7008
  173PVA    C3529354   7.700   3.114   0.515  0.5079 -0.5565  0.4243
  173PVA    H6929355   0.015   3.104   0.589 -0.0133  0.3661  1.1370
  173PVA    O1229356   7.738   3.054   0.392 -0.3892 -0.1290 -0.2371
  173PVA    H7029357   7.651   3.052   0.351 -1.8019  1.1852  2.4217
  173PVA    C3629358   7.603   3.010   0.586 -0.2818 -0.2441 -0.0280
  173PVA    H7129359   7.608   3.058   0.685  0.8724  1.5015 -0.8713
  173PVA    H7229360   7.497   3.033   0.572  0.6150  3.1864 -2.6471
  173PVA    C3729361   7.658   2.860   0.596  1.0501  0.2069  0.3149
  173PVA    H7329362   7.713   2.832   0.505  0.3929 -0.8370  0.2217
  173PVA    H7429363   7.562   2.810   0.580  0.8545  1.3911 -2.9662
  173PVA    C3829364   7.715   2.806   0.734 -0.2726  0.0637 -0.3403
  173PVA    H7529365   7.633   2.791   0.804  0.4561  2.9217  1.2777
  173PVA    O1329366   0.014   2.904   0.810  0.2239 -0.1507 -0.4150
  173PVA    H7629367   0.107   2.900   0.780 -0.6110  0.7258 -3.4994
  173PVA    C3929368   0.020   2.672   0.753  0.0280 -0.3714  0.7040
  173PVA    H7729369   0.058   2.661   0.855  1.8837 -2.5483 -0.1229
  173PVA    H7829370   0.119   2.677   0.706  0.8370 -3.2593  1.8963
  173PVA    C4029371   7.715   2.549   0.703  0.4185 -0.4263  0.3285
  173PVA    H7929372   0.033   2.488   0.667 -1.9148 -0.8551 -5.4741
  173PVA    H8029373   7.652   2.569   0.616 -1.8856  1.3163  2.2486
  173PVA    C4129374   7.659   2.455   0.814  0.4963  0.1964 -0.9098
  173PVA    H8129375   7.593   2.504   0.886  1.3676 -1.0107  0.7828
  173PVA    O1429376   0.006   2.423   0.900  0.1466  1.0099 -0.6440
  173PVA    H8229377   7.746   2.391   0.989 -1.9018  5.1700  0.5558
  173PVA    C4229378   7.586   2.327   0.752 -0.5467 -0.7658  0.5003
  173PVA    H8329379   7.485   2.359   0.723  0.0439  0.7988  0.0903
  173PVA    H8429380   7.645   2.297   0.665  1.0020  2.5352  0.2506
  173PVA    C4329381   7.571   2.216   0.854  0.7846 -0.0918 -0.9881
  173PVA    H8529382   7.512   2.267   0.932  2.8091 -1.0317  1.2854
  173PVA    H8629383   7.671   2.185   0.888 -0.1957  0.6866  3.2525
  173PVA    C4429384   7.471   2.103   0.810 -0.7936 -0.4948  0.4896
  173PVA    H8729385   7.377   2.153   0.783 -1.0007 -0.0665  1.9222
  173PVA    O1529386   7.480   2.017   0.924  0.6497 -0.0276  0.3587
  173PVA    H8829387   7.388   1.990   0.944  0.8010  1.1510  2.9553
  173PVA    C4529388   7.502   2.024   0.677 -0.2348  0.3082 -0.1240
  173PVA    H8929389   7.524   2.086   0.589  2.3930  0.2333  0.4164
  173PVA    H9029390   7.418   1.958   0.652  0.8784 -2.6337  3.1026
  173PVA    C4629391   7.615   1.918   0.682  0.8094 -0.0848 -0.2710
  173PVA    H9129392   7.712   1.964   0.703 -0.9444  2.4052  3.5337
  173PVA    H9229393   7.595   1.847   0.763  3.3648 -0.9240 -0.3029
  173PVA    C4729394   7.606   1.816   0.554  0.6415  0.2878  0.3842
  173PVA    H9329395   7.614   1.863   0.455 -0.0067 -2.4441 -1.0693
  173PVA    O1629396   7.481   1.739   0.566  0.2571 -0.2615 -0.4602
  173PVA    H9429397   7.507   1.646   0.577 -2.6835 -2.0737 -5.3378
  173PVA    C4829398   7.724   1.719   0.555  0.1978  0.2807 -0.4846
  173PVA    H9529399   0.049   1.776   0.532  0.3261 -0.3138 -1.5009
  173PVA    H9629400   7.752   1.689   0.657  4.1589  2.1890 -0.8363
  173PVA    C4929401   7.706   1.597   0.451  0.4181  0.1660  0.5889
  173PVA    H9729402   7.666   1.646   0.361 -2.4794  0.2071  1.7859
  173PVA    H9829403   7.635   1.529   0.500  1.3746 -1.3692 -0.0614
  173PVA    C5029404   0.065   1.522   0.406  1.9786  0.2581 -0.0663
  173PVA    H9929405   0.105   1.561   0.311 -0.3067 -1.9580 -2.0577
  173PVA    O1729406   0.162   1.525   0.511  0.9821  0.1405 -0.7588
  173PVA   H10029407   0.231   1.467   0.475  0.4103 -0.3945 -1.0057
  173PVA    C5129408   0.031   1.366   0.374  0.6987 -0.6690 -0.4764
  173PVA   H10129409   0.016   1.316   0.470 -4.5034 -3.4826 -2.3405
  173PVA   H10229410   7.704   1.334   0.324 -1.3916 -2.6769  4.1013
  174PVA     C129411   4.129   1.092   7.146 -0.5665 -1.6100  0.9864
  174PVA     H129412   4.132   1.184   7.205 -0.9818 -1.3468  0.6049
  174PVA     H229413   4.037   1.080   7.086  4.0039 -1.6080 -7.6795
  174PVA     C229414   4.167   0.984   7.253 -0.6444 -0.9072 -0.1814
  174PVA     H329415   4.179   0.888   7.202 -0.4270 -2.0431  1.8917
  174PVA     O129416   4.276   1.031   7.335 -0.7640 -0.1273  0.4622
  174PVA     H429417   4.335   1.076   7.272 -1.5162 -3.4780 -2.9406
  174PVA     C329418   4.057   0.967   7.353  0.8528  0.8767 -1.3827
  174PVA     H529419   4.075   0.879   7.416  0.6598  1.6238 -0.2567
  174PVA     H629420   3.970   0.948   7.289  2.6500 -1.8672 -3.2222
  174PVA     C429421   4.016   1.077   7.446  0.1136 -0.0459  0.5948
  174PVA     H729422   4.093   1.101   7.520 -1.5225 -1.8006  3.0180
  174PVA     H829423   4.014   1.171   7.389  0.2828 -1.1475 -1.3045
  174PVA     C529424   3.895   1.046   7.536  0.2374  0.7783  0.9433
  174PVA     H929425   3.887   0.964   7.610  0.6682 -1.6986 -1.5858
  174PVA     O229426   3.787   1.018   7.445  0.7062  0.1300 -0.1478
  174PVA    H1029427   3.704   1.022   7.497  0.7853 -0.7923  0.0624
  174PVA     C629428   3.854   1.181   7.601 -0.5375  0.4328  0.2981
  174PVA    H1129429   3.934   1.233   7.656  3.7181 -3.4809 -1.5429
  174PVA    H1229430   3.835   1.265   7.533  2.0995  0.0669 -1.0557
  174PVA     C729431   3.724   1.163   7.695 -1.0611  0.6529  1.5422
  174PVA    H1329432   3.639   1.153   7.627 -0.7095 -0.6982  1.2800
  174PVA    H1429433   3.726   1.062   7.736  2.5041  1.1966  3.0614
  174PVA     C829434   3.689   1.245   7.819 -0.9280  0.7751  0.6216
  174PVA    H1529435   3.773   1.245   7.890 -1.2481  4.1497  1.1836
  174PVA     O329436   3.701   1.385   7.786  0.7444  0.0353  2.1094
  174PVA    H1629437   3.712   1.427   7.873 -1.5969 -2.3205  3.6728
  174PVA     C929438   3.561   1.209   7.896  0.5512  0.8195 -0.4690
  174PVA    H1729439   3.462   1.236   7.857  0.2338  1.4995  0.7417
  174PVA    H1829440   3.560   1.100   7.904 -2.3785  0.8872  1.9331
  174PVA    C1029441   3.567   1.240   8.048 -0.0246 -1.3935  0.6547
  174PVA    H1929442   3.648   1.311   8.072  1.0973 -2.8522  1.3979
  174PVA    H2029443   3.615   1.158   0.006 -1.1012 -0.0686  3.7761
  174PVA    C1129444   3.430   1.276   0.006  0.3455 -0.1588  0.0504
  174PVA    H2129445   3.420   1.308   0.111 -0.7758 -1.6980  0.4531
  174PVA     O429446   3.397   1.392   8.027  0.6642  0.2758  0.0635
  174PVA    H2229447   3.346   1.350   7.956 -1.3015  0.8771  1.0387
  174PVA    C1229448   3.334   1.160   8.092  0.6151 -0.1200 -0.4775
  174PVA    H2329449   3.340   1.122   7.989  3.2466 -2.3577  0.3922
  174PVA    H2429450   3.372   1.089   0.069  3.9830 -0.4826 -2.3312
  174PVA    C1329451   3.190   1.217   0.026 -1.0514  0.6890 -0.1595
  174PVA    H2529452   3.128   1.229   8.034  0.2046 -3.2636 -1.7785
  174PVA    H2629453   3.179   1.314   0.078 -2.8142  1.3093 -1.6085
  174PVA    C1429454   3.120   1.121   0.118 -0.0457 -0.0218 -0.7076
  174PVA    H2729455   3.189   1.065   0.183 -0.4743 -1.1062 -1.1556
  174PVA     O529456   3.052   1.027   0.037  1.0298  0.1655 -0.0852
  174PVA    H2829457   2.961   1.054   0.058  1.5808  2.0494  0.0475
  174PVA    C1529458   3.019   1.184   0.205  0.8910  0.7844 -1.0947
  174PVA    H2929459   2.920   1.148   0.174 -1.6678  2.6000  3.7729
  174PVA    H3029460   3.003   1.289   0.177 -4.0615  1.6823  3.3363
  174PVA    C1629461   3.027   1.176   0.366  0.0115 -0.3631  0.0393
  174PVA    H3129462   3.028   1.070   0.396 -3.4241 -0.2928  0.8062
  174PVA    H3229463   3.129   1.208   0.392  0.5073 -1.2046 -0.8200
  174PVA    C1729464   2.914   1.255   0.450  0.6236  0.5930  1.3477
  174PVA    H3329465   2.928   1.202   0.545  1.8098 -0.1668  0.7792
  174PVA     O629466   2.944   1.394   0.481 -0.0731 -0.0827 -0.9954
  174PVA    H3429467   2.875   1.423   0.544  3.3174 -1.5643  3.9875
  174PVA    C1829468   2.767   1.233   0.411 -0.3270  0.2560  0.0760
  174PVA    H3529469   2.759   1.198   0.307 -4.9326 -1.2062  0.6677
  174PVA    H3629470   2.734   1.151   0.476 -1.7891 -0.5211 -1.5564
  174PVA    C1929471   2.679   1.358   0.420 -0.2287  0.1314  0.4337
  174PVA    H3729472   2.724   1.442   0.365 -2.9389  0.8434 -0.8954
  174PVA    H3829473   2.661   1.396   0.521  1.2912  2.8331 -0.2130
  174PVA    C2029474   2.534   1.327   0.366  0.7853  0.0110 -0.2950
  174PVA    H3929475   2.526   1.307   0.258  2.0061 -2.9409  0.0598
  174PVA     O729476   2.480   1.218   0.445 -0.3742  0.0440  0.2019
  174PVA    H4029477   2.503   1.215   0.540  0.7172 -1.2870 -0.0748
  174PVA    C2129478   2.435   1.454   0.386 -0.3124 -0.6501 -0.2345
  174PVA    H4129479   2.486   1.546   0.416 -0.3796 -0.1236 -1.6758
  174PVA    H4229480   2.363   1.445   0.469 -0.6561 -0.0266 -0.4589
  174PVA    C2229481   2.358   1.499   0.258 -0.5351  1.4528 -0.3238
  174PVA    H4329482   2.284   1.574   0.288 -1.3117  0.4968  0.2014
  174PVA    H4429483   2.425   1.549   0.187  2.8889 -1.3121  0.6608
  174PVA    C2329484   2.277   1.385   0.197  0.2913 -0.3382  0.4079
  174PVA    H4529485   2.346   1.302   0.177 -1.7964 -2.0561 -0.1056
  174PVA     O829486   2.237   1.416   0.064 -0.4828  0.4174  0.1117
  174PVA    H4629487   2.171   1.348   0.041  3.5525 -4.6924  1.5796
  174PVA    C2429488   2.147   1.341   0.282 -1.1449  0.0235  0.1400
  174PVA    H4729489   2.090   1.266   0.226  0.8406 -3.2995  2.1556
  174PVA    H4829490   2.174   1.285   0.373 -0.4890  1.1825  0.6822
  174PVA    C2529491   2.045   1.455   0.321  0.7746  0.3071 -0.3994
  174PVA    H4929492   2.007   1.495   0.226 -1.8512  2.1426  1.3069
  174PVA    H5029493   2.105   1.524   0.382  0.1738 -1.1551  1.9689
  174PVA    C2629494   1.930   1.415   0.413  0.7978 -0.0185 -0.2532
  174PVA    H5129495   1.844   1.480   0.391  0.4211 -0.2355  0.5596
  174PVA     O929496   1.896   1.279   0.390  0.1935 -0.4066  0.0343
  174PVA    H5229497   1.980   1.241   0.359  1.9722  1.3931  2.2381
  174PVA    C2729498   1.964   1.446   0.568 -0.9716 -0.5850 -0.9149
  174PVA    H5329499   1.882   1.403   0.627 -1.2839 -0.9523 -1.6024
  174PVA    H5429500   1.988   1.551   0.590  4.7969 -1.9766  1.1103
  174PVA    C2829501   2.085   1.365   0.619  0.6509  0.5051  0.0159
  174PVA    H5529502   2.076   1.263   0.581  1.5074 -0.1316  1.4297
  174PVA    H5629503   2.173   1.401   0.565  2.9442 -2.2082  1.6748
  174PVA    C2929504   2.121   1.389   0.765 -0.1981  0.7948 -0.1320
  174PVA    H5729505   2.178   1.484   0.762 -0.3892  0.9733  1.1857
  174PVA    O1029506   2.014   1.417   0.850  0.2710 -0.1958 -0.7626
  174PVA    H5829507   1.958   1.341   0.824  2.1026 -1.3262 -1.5943
  174PVA    C3029508   2.215   1.288   0.822 -0.0626  0.4032  1.2975
  174PVA    H5929509   2.226   1.203   0.753 -2.5091  0.5934  0.5976
  174PVA    H6029510   2.310   1.336   0.850  1.7793 -0.8685 -2.1382
  174PVA    C3129511   2.147   1.216   0.949  0.1385 -0.1348  0.4070
  174PVA    H6129512   2.043   1.185   0.940  1.2278 -3.4893 -5.8554
  174PVA    H6229513   2.149   1.289   1.031  2.1864 -3.5903  3.7950
  174PVA    C3229514   2.221   1.086   0.990 -0.2024 -1.2143  0.6915
  174PVA    H6329515   2.246   1.042   0.892 -0.7974  3.5268 -1.8873
  174PVA    O1129516   2.349   1.117   1.051 -0.9279 -0.6457  0.2363
  174PVA    H6429517   2.402   1.165   0.985  0.5708 -2.7739 -0.2132
  174PVA    C3329518   2.154   0.979   1.080  0.7726  0.2705  1.5562
  174PVA    H6529519   2.167   1.014   1.184  1.5155 -0.2405  1.6472
  174PVA    H6629520   2.212   0.886   1.070  0.2323  0.1640 -1.3795
  174PVA    C3429521   2.016   0.926   1.044  1.1278  0.9442 -0.4230
  174PVA    H6729522   1.941   0.991   1.091  1.7001  2.1805 -1.1893
  174PVA    H6829523   1.999   0.916   0.936  2.4726  0.5841 -0.6131
  174PVA    C3529524   1.970   0.794   1.126 -0.1387  0.2286 -0.5554
  174PVA    H6929525   2.036   0.722   1.076  0.5242  2.2768 -2.8457
  174PVA    O1229526   2.018   0.797   1.258 -0.3554 -0.6094 -0.1758
  174PVA    H7029527   1.967   0.862   1.310 -3.4954 -2.3784 -0.8231
  174PVA    C3629528   1.814   0.773   1.121  0.7652  0.7823  0.8028
  174PVA    H7129529   1.795   0.667   1.141 -0.5855  0.9038  0.2527
  174PVA    H7229530   1.771   0.842   1.195  0.5482  3.4684 -1.6147
  174PVA    C3729531   1.736   0.799   0.988 -1.0869  0.4321 -0.1952
  174PVA    H7329532   1.778   0.733   0.911 -1.5299  3.1883 -2.9984
  174PVA    H7429533   1.769   0.899   0.958  2.1775  0.8387  3.8845
  174PVA    C3829534   1.584   0.801   1.007  0.2084  0.4621  0.3232
  174PVA    H7529535   1.548   0.743   1.092 -1.1616  1.7873  0.6940
  174PVA    O1329536   1.556   0.945   1.010  0.8171 -0.4676 -0.0200
  174PVA    H7629537   1.593   0.985   0.930  0.2308  0.7513  0.2914
  174PVA    C3929538   1.504   0.739   0.895 -0.4362  0.7635  0.3447
  174PVA    H7729539   1.532   0.638   0.862 -1.9530  0.9810 -1.7624
  174PVA    H7829540   1.509   0.804   0.807 -1.1962  0.2128 -0.1171
  174PVA    C4029541   1.360   0.749   0.936 -0.9568  0.2572 -1.4954
  174PVA    H7929542   1.342   0.737   1.044 -0.8468 -0.6992 -1.5777
  174PVA    H8029543   1.331   0.854   0.919 -7.4144 -0.3862  2.0877
  174PVA    C4129544   1.257   0.660   0.885  0.7321 -0.0385  0.0607
  174PVA    H8129545   1.247   0.668   0.776 -1.5645 -4.5505 -0.2821
  174PVA    O1429546   1.283   0.524   0.920  1.2226 -1.0404  0.2327
  174PVA    H8229547   1.289   0.541   1.016 -0.1517  2.4497 -0.1363
  174PVA    C4229548   1.113   0.684   0.932  0.0332  0.1970 -0.3157
  174PVA    H8329549   1.107   0.632   1.028  0.5419 -0.2403 -0.5161
  174PVA    H8429550   1.083   0.788   0.951 -1.0654 -0.2201  0.3120
  174PVA    C4329551   1.016   0.622   0.819  0.5745 -0.3969  0.3607
  174PVA    H8529552   0.987   0.517   0.829  2.4550 -0.8479  1.5633
  174PVA    H8629553   1.070   0.610   0.724  1.0821 -0.5071  0.6628
  174PVA    C4429554   0.891   0.720   0.796 -0.2997  0.6706 -0.1299
  174PVA    H8729555   0.925   0.814   0.750 -3.7349  0.9167 -2.4747
  174PVA    O1529556   0.848   0.742   0.928  0.5269  0.7853  0.4848
  174PVA    H8829557   0.814   0.660   0.970  3.4540 -0.9003 -0.1928
  174PVA    C4529558   0.774   0.647   0.717  0.3318 -0.3210 -0.2774
  174PVA    H8929559   0.764   0.553   0.772 -0.5181  0.2879  0.6652
  174PVA    H9029560   0.796   0.623   0.612  0.1406  2.8381 -1.1476
  174PVA    C4629561   0.634   0.723   0.712 -1.3393 -1.1543 -0.1995
  174PVA    H9129562   0.613   0.743   0.817 -0.0460  0.6834 -0.2500
  174PVA    H9229563   0.644   0.818   0.657  3.2280 -0.9170  0.5957
  174PVA    C4729564   0.519   0.642   0.645  0.8811  0.9015  0.9758
  174PVA    H9329565   0.562   0.598   0.554 -1.4703  0.2696  0.0846
  174PVA    O1629566   0.475   0.533   0.731 -0.7652  0.0273 -0.2570
  174PVA    H9429567   0.557   0.515   0.782  0.1911  0.0993 -1.7058
  174PVA    C4829568   0.386   0.718   0.623 -0.5998 -0.4885 -0.0487
  174PVA    H9529569   0.299   0.667   0.665 -1.9272 -1.2679 -3.3908
  174PVA    H9629570   0.393   0.811   0.680  4.4230 -1.6387  1.7746
  174PVA    C4929571   0.330   0.736   0.478 -0.1846  0.3810 -0.9985
  174PVA    H9729572   0.403   0.781   0.409  1.5022  1.0360  1.0942
  174PVA    H9829573   0.302   0.645   0.423  0.5793 -0.8197  0.5268
  174PVA    C5029574   0.207   0.837   0.468  0.3527  0.4462 -0.7688
  174PVA    H9929575   0.241   0.929   0.517  0.9826 -0.1339 -0.0843
  174PVA    O1729576   0.093   0.798   0.541  0.5146 -0.1021 -0.2325
  174PVA   H10029577   0.058   0.713   0.508  2.8024 -0.4522 -2.0265
  174PVA    C5129578   0.165   0.872   0.320 -0.0779 -0.2227  0.2096
  174PVA   H10129579   0.062   0.846   0.293  0.4507  1.4322 -4.0833
  174PVA   H10229580   0.226   0.807   0.256  4.2836  1.8675  1.8979
  175PVA     C129581   4.333   1.495   6.961  0.3082 -1.1319  0.6523
  175PVA     H129582   4.404   1.536   7.034  1.1912 -0.7202 -0.4121
  175PVA     H229583   4.359   1.506   6.855 -2.5777 -2.1450 -0.2578
  175PVA     C229584   4.198   1.556   6.989 -0.1400  0.1233  0.6065
  175PVA     H329585   4.151   1.495   7.068 -1.7944 -1.2498 -1.3462
  175PVA     O129586   4.112   1.548   6.865 -0.8802  0.0910  0.2896
  175PVA     H429587   4.106   1.636   6.824  2.8640  0.4031  0.0984
  175PVA     C329588   4.212   1.703   7.054  0.0512  0.0245  0.1381
  175PVA     H529589   4.263   1.769   6.983 -0.1176 -0.6020 -0.5802
  175PVA     H629590   4.279   1.692   7.140  0.1111 -0.2775  0.0559
  175PVA     C429591   4.075   1.745   7.115 -0.2112 -0.3043  0.3569
  175PVA     H729592   4.027   1.774   7.021  4.2603  0.8439 -1.8437
  175PVA     H829593   4.011   1.664   7.153  0.0062  0.1812  1.8457
  175PVA     C529594   4.076   1.854   7.230  0.4535  0.7472  0.0992
  175PVA     H929595   4.120   1.945   7.187 -1.5219  1.4879 -0.4620
  175PVA     O229596   4.158   1.814   7.338  0.6201  0.1512 -0.8970
  175PVA    H1029597   4.132   1.722   7.354  3.0643 -0.0513  3.7120
  175PVA     C629598   3.923   1.905   7.276 -0.1245 -0.4828  0.1967
  175PVA    H1129599   3.864   1.833   7.335 -1.5581  0.0029 -0.6020
  175PVA    H1229600   3.866   1.927   7.185  3.5743  0.8661 -1.9967
  175PVA     C729601   3.943   2.043   7.342 -1.4959 -0.7956 -0.3919
  175PVA    H1329602   3.844   2.090   7.344 -0.8309  0.6716 -1.0418
  175PVA    H1429603   4.009   2.100   7.276  0.9582  1.1787  3.3692
  175PVA     C829604   3.989   2.080   7.497 -0.1150  0.5939  0.1245
  175PVA    H1529605   4.086   2.030   7.510 -1.0224 -0.6200  2.8349
  175PVA     O329606   3.908   2.021   7.599  0.3158  0.2837 -0.6374
  175PVA    H1629607   3.932   2.086   7.668 -2.8071  2.1427 -1.1045
  175PVA     C929608   4.000   2.232   7.524 -0.5465  0.7761 -0.0470
  175PVA    H1729609   3.917   2.257   7.592 -1.8734 -0.5326 -1.1475
  175PVA    H1829610   3.974   2.303   7.445 -2.4766 -0.3742 -0.4997
  175PVA    C1029611   4.125   2.292   7.574  0.4124 -0.8708 -0.1474
  175PVA    H1929612   4.162   2.272   7.676  3.2232 -1.2106 -1.1501
  175PVA    H2029613   4.205   2.247   7.515  2.8932  0.0174  2.2851
  175PVA    C1129614   4.137   2.453   7.542  1.8722  0.6910 -0.3494
  175PVA    H2129615   4.035   2.493   7.543  2.1775  1.5315 -1.2486
  175PVA     O429616   4.204   2.472   7.417 -0.0104  0.1019 -0.3588
  175PVA    H2229617   4.157   2.412   7.356 -3.8233  1.5832  0.8221
  175PVA    C1229618   4.206   2.538   7.650 -0.0236 -0.4749  0.0105
  175PVA    H2329619   4.139   2.613   7.694  0.0669 -0.7204  0.5771
  175PVA    H2429620   4.218   2.468   7.734 -0.0508 -3.6718 -2.4961
  175PVA    C1329621   4.337   2.609   7.637 -0.1822  0.4286 -0.2544
  175PVA    H2529622   4.420   2.540   7.656  1.5765  2.2246 -1.0125
  175PVA    H2629623   4.351   2.654   7.538  2.8780  0.2461 -0.0033
  175PVA    C1429624   4.361   2.726   7.744 -0.4100  0.3002 -0.1379
  175PVA    H2729625   4.322   2.824   7.712 -1.3541 -0.7200 -2.3366
  175PVA     O529626   4.306   2.709   7.874  0.2718 -0.0474  1.6039
  175PVA    H2829627   4.261   2.794   7.887  3.1857  1.7075  1.2437
  175PVA    C1529628   4.508   2.745   7.771 -0.1113  0.7211  0.0220
  175PVA    H2929629   4.563   2.728   7.677 -1.2650  3.1060 -1.1585
  175PVA    H3029630   4.550   2.670   7.840  3.7872  2.0709 -0.6120
  175PVA    C1629631   4.550   2.877   7.839 -0.6312 -0.2479  0.3436
  175PVA    H3129632   4.514   2.972   7.797  1.6546  1.7785  2.6287
  175PVA    H3229633   4.512   2.884   7.942  1.3793 -0.5487  1.1658
  175PVA    C1729634   4.708   2.899   7.843 -0.4901  0.9070  0.0668
  175PVA    H3329635   4.745   2.902   7.740  0.5739  0.6409  0.4248
  175PVA     O629636   4.767   2.773   7.894 -0.4520  0.4852 -0.4285
  175PVA    H3429637   4.743   2.693   7.844 -0.4000 -1.5007  2.4846
  175PVA    C1829638   4.748   3.027   7.937 -0.9083 -0.1477  0.4781
  175PVA    H3529639   4.655   3.067   7.979 -0.4377 -0.8671  2.3375
  175PVA    H3629640   4.798   3.010   8.034 -0.9057 -0.5771  0.4040
  175PVA    C1929641   4.830   3.143   7.855  0.1388  1.2685 -0.0920
  175PVA    H3729642   4.759   3.165   7.774  2.3912  2.1626 -1.9293
  175PVA    H3829643   4.844   3.245   7.891 -0.4823  2.2614 -2.4501
  175PVA    C2029644   4.970   3.104   7.802 -0.5031 -0.9077  0.1868
  175PVA    H3929645   5.033   3.095   7.891  3.9147  2.5592 -2.1355
  175PVA     O729646   4.948   3.000   7.715 -0.1905  0.6786 -0.2154
  175PVA    H4029647   4.909   2.928   7.766  2.0285 -1.3633 -1.2141
  175PVA    C2129648   5.028   3.224   7.722 -0.1672  0.1433 -0.1997
  175PVA    H4129649   5.037   3.312   7.786 -0.8422  1.4117 -1.7796
  175PVA    H4229650   4.944   3.257   7.660 -0.1073  0.8929  0.1114
  175PVA    C2229651   5.168   3.188   7.632  0.2145  0.2040 -0.6718
  175PVA    H4329652   5.247   3.133   7.683  2.1541 -0.7980 -4.3734
  175PVA    H4429653   5.136   3.114   7.558  2.6063 -0.7894 -0.7804
  175PVA    C2329654   5.238   3.308   7.558 -0.6071  0.3087 -1.0037
  175PVA    H4529655   5.183   3.335   7.467 -3.2982 -4.7978 -1.3269
  175PVA     O829656   5.222   3.429   7.643 -0.3679  1.0912 -0.1292
  175PVA    H4629657   5.129   3.455   7.657  0.1751  2.1831  1.8668
  175PVA    C2429658   5.378   3.271   7.520  1.0194 -0.1013  0.6175
  175PVA    H4729659   5.420   3.255   7.620  2.2311  1.1972  0.3378
  175PVA    H4829660   5.364   3.174   7.470 -2.7809  0.2656  0.6390
  175PVA    C2529661   5.453   3.384   7.442  0.2538  0.1170 -0.3216
  175PVA    H4929662   5.386   3.466   7.416 -1.9801 -1.6369 -0.4336
  175PVA    H5029663   5.495   3.341   7.350 -0.7615  0.9548 -1.2065
  175PVA    C2629664   5.555   3.458   7.517  0.1191 -0.6839 -1.2071
  175PVA    H5129665   5.630   3.382   7.539 -1.7196 -1.5412  2.9052
  175PVA     O929666   5.490   3.494   7.643 -0.1162  0.2250  0.0383
  175PVA    H5229667   5.419   3.427   7.645 -0.8563  1.0107  0.6831
  175PVA    C2729668   5.632   3.575   7.453 -0.0307  0.0028  0.5902
  175PVA    H5329669   5.564   3.660   7.435 -0.9658 -0.6395  1.0268
  175PVA    H5429670   5.677   3.543   7.359  1.3101  3.6844 -0.2188
  175PVA    C2829671   5.748   3.635   7.533  0.2936 -1.0615 -0.3210
  175PVA    H5529672   5.735   3.582   7.628 -2.7060  3.6720  2.3302
  175PVA    H5629673   5.836   3.613   7.471 -1.0799 -0.9216 -2.4174
  175PVA    C2929674   5.765   3.786   7.534  0.5644  0.4854  0.5641
  175PVA    H5729675   5.853   3.809   7.595 -2.3534  1.8474  4.6778
  175PVA    O1029676   5.789   3.833   7.409 -0.9852 -0.7834 -0.5694
  175PVA    H5829677   5.765   3.757   7.355 -0.0758 -2.1735  0.8978
  175PVA    C3029678   5.646   3.868   7.604 -0.7302  1.1482 -0.5387
  175PVA    H5929679   5.594   3.916   7.520  1.3215  0.7629 -2.1077
  175PVA    H6029680   5.586   3.798   7.664 -1.1900  1.7094 -0.3281
  175PVA    C3129681   5.698   3.989   7.688 -0.4255  0.3725  0.1246
  175PVA    H6129682   5.774   4.052   7.639  1.4490 -0.7643  1.4584
  175PVA    H6229683   5.747   3.959   7.781 -2.2039 -2.3121  0.2872
  175PVA    C3229684   5.594   4.079   7.751 -0.4744 -0.1097 -0.4350
  175PVA    H6329685   5.587   4.050   7.856  0.6386 -0.2302 -0.3820
  175PVA    O1129686   5.466   4.051   7.687  0.4991 -0.2533 -0.6157
  175PVA    H6429687   5.465   4.070   7.592  2.6306 -3.4117 -1.4160
  175PVA    C3329688   5.620   4.231   7.742 -0.9542 -0.3229  0.2117
  175PVA    H6529689   5.524   4.277   7.768  1.0547  2.3092  3.9024
  175PVA    H6629690   5.645   4.275   7.645 -1.0945 -0.6621  0.0199
  175PVA    C3429691   5.724   4.283   7.856  0.3178  1.2645  0.6552
  175PVA    H6729692   5.698   4.255   7.959 -3.5629 -2.8730 -1.1015
  175PVA    H6829693   5.826   4.250   7.831  0.6720  1.3326  1.9550
  175PVA    C3529694   5.751   4.432   7.850 -0.3108  0.7867 -0.3540
  175PVA    H6929695   5.652   4.472   7.876 -1.6650 -1.2159 -2.1139
  175PVA    O1229696   5.776   4.465   7.716  0.6369 -0.3214  0.2379
  175PVA    H7029697   5.695   4.447   7.666  1.9985 -0.9592 -1.8646
  175PVA    C3629698   5.852   4.470   7.960 -0.5151 -1.0323  0.3600
  175PVA    H7129699   5.925   4.391   7.939  1.1259  0.6353 -0.5676
  175PVA    H7229700   5.904   4.566   7.944  0.9124 -1.5067  1.8796
  175PVA    C3729701   5.793   4.464   0.005 -0.0466 -0.4225 -0.2202
  175PVA    H7329702   5.686   4.442   0.013  0.2063 -1.6179  0.0780
  175PVA    H7429703   5.807   4.565   0.044  1.8961 -0.2100 -1.3424
  175PVA    C3829704   5.875   4.367   0.094  0.0712  0.1191  0.0288
  175PVA    H7529705   5.972   4.417   0.105 -0.1147  0.8182 -1.3028
  175PVA    O1329706   5.901   4.243   0.029  0.4817 -0.1335 -0.0043
  175PVA    H7629707   5.937   4.184   0.098  3.9976 -0.0895 -1.5838
  175PVA    C3929708   5.820   4.356   0.240 -0.4678 -0.0164  0.0918
  175PVA    H7729709   5.716   4.324   0.248 -0.1519 -1.5866 -1.3756
  175PVA    H7829710   5.803   4.456   0.282  3.4520  1.5792 -1.5773
  175PVA    C4029711   5.913   4.271   0.333  1.0648 -1.2030  0.8470
  175PVA    H7929712   6.012   4.293   0.290 -0.2302  2.8808 -0.4458
  175PVA    H8029713   5.925   4.324   0.428  0.0804 -0.5206  0.6011
  175PVA    C4129714   5.877   4.122   0.357  0.0415  0.1168  0.0420
  175PVA    H8129715   5.770   4.108   0.373  0.1455  0.4179  1.0457
  175PVA    O1429716   5.918   4.060   0.233 -0.7058 -0.1785 -0.6064
  175PVA    H8229717   5.870   3.982   0.201 -3.6194  1.5881 -0.8901
  175PVA    C4229718   5.957   4.055   0.470 -0.1746 -0.1797 -0.1693
  175PVA    H8329719   6.053   4.034   0.422  0.5605  0.9578  0.7258
  175PVA    H8429720   5.969   4.129   0.550 -0.7647  0.2216 -0.4427
  175PVA    C4329721   5.910   3.914   0.533 -0.2096 -0.3445 -0.4935
  175PVA    H8529722   5.917   3.829   0.464  2.3893 -0.6545  0.0374
  175PVA    H8629723   5.807   3.926   0.568  0.5348 -0.1718  1.8372
  175PVA    C4429724   6.002   3.874   0.646 -0.2395  1.0053  0.1094
  175PVA    H8729725   6.015   3.975   0.686 -0.6450  2.2024 -2.5408
  175PVA    O1529726   6.113   3.812   0.577 -0.1091 -0.4125 -0.7607
  175PVA    H8829727   6.073   3.760   0.505  0.4980 -1.5656 -0.2937
  175PVA    C4529728   5.927   3.783   0.750  0.6441 -0.2712 -0.7332
  175PVA    H8929729   5.899   3.689   0.700  0.7554 -0.0602 -1.2065
  175PVA    H9029730   5.825   3.822   0.756  1.5533  2.2879 -0.7758
  175PVA    C4629731   5.995   3.753   0.882  0.6619  0.7388  0.3568
  175PVA    H9129732   5.970   3.839   0.945  0.1149 -0.7506  2.2705
  175PVA    H9229733   5.927   3.679   0.925 -2.0922  2.1416 -1.3021
  175PVA    C4729734   6.138   3.708   0.893 -1.3722 -0.1271  0.3521
  175PVA    H9329735   6.187   3.789   0.837 -2.2858  1.0859  1.2412
  175PVA    O1629736   6.153   3.578   0.835  0.4029 -0.2189  0.4901
  175PVA    H9429737   6.161   3.594   0.740  2.9483  0.4325  0.7504
  175PVA    C4829738   6.204   3.703   1.028  0.4946  0.6148 -0.2873
  175PVA    H9529739   6.115   3.737   1.082  0.3648 -0.9108  0.4946
  175PVA    H9629740   6.222   3.606   1.076  0.7852 -0.6558 -2.7706
  175PVA    C4929741   6.332   3.783   1.046 -0.7795 -0.5531 -0.0023
  175PVA    H9729742   6.323   3.871   0.981 -1.9648 -1.5111 -1.2027
  175PVA    H9829743   6.405   3.706   1.019 -1.0112 -1.3071  1.3814
  175PVA    C5029744   6.359   3.801   1.198  0.6045 -0.1250 -0.2674
  175PVA    H9929745   6.262   3.838   1.235  0.6485 -0.6956  0.4304
  175PVA    O1729746   6.374   3.675   1.251  0.9722 -0.3802 -0.3252
  175PVA   H10029747   6.292   3.625   1.239  1.3635 -0.4605 -3.3979
  175PVA    C5129748   6.482   3.908   1.220 -0.2029  0.4605  0.1999
  175PVA   H10129749   6.562   3.856   1.274  2.9758  2.5909 -2.0337
  175PVA   H10229750   6.532   3.928   1.124 -3.8395 -0.2060 -2.0473
  176PVA     C129751   0.892   0.577   0.201  0.3536  0.1926  1.0283
  176PVA     H129752   0.984   0.526   0.232  0.6372 -0.3846 -0.6866
  176PVA     H229753   0.911   0.646   0.118  1.4580 -1.2613  0.0356
  176PVA     C229754   0.815   0.461   0.137 -0.7061 -0.9406  0.6290
  176PVA     H329755   0.732   0.511   0.085  0.7399  1.2964  0.2992
  176PVA     O129756   0.748   0.395   0.239 -0.5049  0.7370 -0.5670
  176PVA     H429757   0.806   0.336   0.290  1.6787  2.2431 -1.1560
  176PVA     C329758   0.899   0.357   0.045 -0.0171  0.2504 -1.3555
  176PVA     H529759   0.986   0.326   0.105 -2.2468 -0.4645  1.7792
  176PVA     H629760   0.963   0.403   8.066 -2.4236  3.7738 -1.5076
  176PVA     C429761   0.836   0.219   8.082  0.7725  0.4647 -0.0039
  176PVA     H729762   0.730   0.232   8.054  0.9411 -0.4728 -1.1903
  176PVA     H829763   0.851   0.132   0.049 -1.0754  0.6195  0.6976
  176PVA     C529764   0.915   0.175   7.961  0.8759  1.3845  0.1328
  176PVA     H929765   1.019   0.177   7.996  0.9927 -3.7630  0.8312
  176PVA     O229766   0.872   0.270   7.856 -1.0165 -0.0396 -0.2659
  176PVA    H1029767   0.909   0.236   7.772  2.6340 -2.3065  1.9806
  176PVA     C629768   0.917   0.029   7.901 -1.2705  0.0761  1.0690
  176PVA    H1129769   0.862   7.651   7.973  0.6559 -0.2465  2.3620
  176PVA    H1229770   0.855   0.026   7.811  0.5564  2.3839 -0.3770
  176PVA     C729771   1.058   7.657   7.850  0.2079 -0.0148 -0.2183
  176PVA    H1329772   1.107   7.609   7.936 -0.1802 -1.1889 -0.6331
  176PVA    H1429773   1.110   0.059   7.806 -3.9367  2.0155 -1.5558
  176PVA     C829774   1.069   7.554   7.739  0.4006  0.1443 -0.1369
  176PVA    H1529775   0.983   7.488   7.759 -0.2177  1.0706  0.3040
  176PVA     O329776   1.055   7.611   7.615 -0.0298  0.2562  0.0378
  176PVA    H1629777   0.970   7.655   7.631  1.3449  3.4549 -0.7289
  176PVA     C929778   1.209   7.464   7.744  1.3187 -0.0029  1.2015
  176PVA    H1729779   1.263   7.478   7.839  2.9031 -1.1085  0.5117
  176PVA    H1829780   1.280   7.515   7.678 -0.0059  2.7733  1.7765
  176PVA    C1029781   1.201   7.316   7.691 -0.1520  0.5248  0.3092
  176PVA    H1929782   1.138   7.253   7.754 -1.2427 -0.7064 -1.9017
  176PVA    H2029783   1.158   7.313   7.590  2.9207 -0.1642 -1.0735
  176PVA    C1129784   1.328   7.233   7.668 -0.3075 -0.1755  0.7303
  176PVA    H2129785   1.360   7.214   7.772  1.2085  1.6196  0.6533
  176PVA     O429786   1.420   7.321   7.598  0.0883  1.0285 -0.2813
  176PVA    H2229787   1.378   7.343   7.512 -2.2679 -6.1329 -1.6195
  176PVA    C1229788   1.310   7.091   7.599 -0.1651  0.9174 -0.3143
  176PVA    H2329789   1.230   7.036   7.649 -1.3670  0.8751 -2.2073
  176PVA    H2429790   1.265   7.098   7.499 -0.0007 -0.2208 -0.4814
  176PVA    C1329791   1.442   7.004   7.575 -1.2680  0.2322  0.8194
  176PVA    H2529792   1.481   7.021   7.474  0.4676 -5.9786  0.0308
  176PVA    H2629793   1.530   7.054   7.618 -1.8104  1.8600  0.1137
  176PVA    C1429794   1.430   6.849   7.592  0.3296 -0.3670  0.0475
  176PVA    H2729795   1.399   6.814   7.493  1.1511 -2.4544  0.4595
  176PVA     O529796   1.328   6.811   7.689  1.2559  0.2052  0.8047
  176PVA    H2829797   1.319   6.886   7.750  2.6585 -0.3581  1.7658
  176PVA    C1529798   1.564   6.760   7.633  0.6270  0.0812 -0.3391
  176PVA    H2929799   1.591   6.805   7.730 -4.6564  0.4618  1.3030
  176PVA    H3029800   1.641   6.783   7.559 -4.5471  0.8870 -6.2415
  176PVA    C1629801   1.571   6.597   7.614  1.0811 -1.0388 -0.7439
  176PVA    H3129802   1.463   6.578   7.603  1.0250 -1.8860  0.9769
  176PVA    H3229803   1.626   6.583   7.520 -1.0205 -0.2861 -2.1907
  176PVA    C1729804   1.601   6.471   7.709  1.7412  0.3576  0.7908
  176PVA    H3329805   1.516   6.475   7.778 -0.0538  0.0323 -1.2915
  176PVA     O629806   1.595   6.350   7.638  0.5352 -0.1077  0.0830
  176PVA    H3429807   1.505   6.332   7.604  0.8883 -5.6853  1.0481
  176PVA    C1829808   1.736   6.460   7.794 -0.3863 -1.2635  0.4679
  176PVA    H3529809   1.825   6.491   7.736 -3.3120  0.5585 -3.5446
  176PVA    H3629810   1.717   6.537   7.869 -0.6885  3.5235 -3.9521
  176PVA    C1929811   1.783   6.315   7.851 -0.0515 -0.7135  1.1867
  176PVA    H3729812   1.796   6.237   7.775 -2.2455 -0.9600  1.0103
  176PVA    H3829813   1.693   6.279   7.902 -0.4020 -0.7592  0.5485
  176PVA    C2029814   1.895   6.297   7.957 -0.1320 -0.3094 -0.1583
  176PVA    H3929815   1.991   6.278   7.907 -0.7975  0.0032 -1.6133
  176PVA     O729816   1.918   6.423   8.008 -0.7422  0.5836  0.0302
  176PVA    H4029817   1.898   6.492   7.942  0.8605  0.7098 -0.3631
  176PVA    C2129818   1.885   6.189   8.075 -0.7151  0.0902  0.2543
  176PVA    H4129819   1.975   6.199   0.040  1.2813 -5.7234 -1.0464
  176PVA    H4229820   1.891   6.087   8.035  0.7339 -1.2591  3.5098
  176PVA    C2229821   1.759   6.154   0.065  0.3741  0.6694  0.0761
  176PVA    H4329822   1.758   6.236   0.138  3.6947  1.4235 -0.5708
  176PVA    H4429823   1.664   6.169   0.011 -0.5698  1.3103  1.8141
  176PVA    C2329824   1.753   6.026   0.141 -0.1323 -0.5180  0.0381
  176PVA    H4529825   1.845   6.008   0.198 -0.4773 -0.9957  0.4595
  176PVA     O829826   1.741   5.916   0.058 -0.0865 -0.5227 -0.5411
  176PVA    H4629827   1.818   5.923   8.097  0.5159 -3.4712 -0.2586
  176PVA    C2429828   1.641   6.012   0.252 -0.4118 -0.9612 -0.2466
  176PVA    H4729829   1.654   6.093   0.326  1.4320 -3.4626  2.3813
  176PVA    H4829830   1.541   6.013   0.205 -0.8069 -0.2304  0.5768
  176PVA    C2529831   1.626   5.893   0.339  1.1557 -0.1949 -0.3089
  176PVA    H4929832   1.722   5.840   0.342  1.0204 -0.4328 -0.1752
  176PVA    H5029833   1.549   5.837   0.283  2.5052 -0.6686 -1.7726
  176PVA    C2629834   1.562   5.886   0.486 -0.4012 -0.1436  0.3261
  176PVA    H5129835   1.608   5.793   0.523  1.8787  0.1076 -1.6514
  176PVA     O929836   1.605   5.983   0.572 -1.2005 -1.4346  0.8545
  176PVA    H5229837   1.526   6.026   0.608 -2.4132 -2.7557 -0.0793
  176PVA    C2729838   1.412   5.842   0.505  0.0471  0.3350 -0.0331
  176PVA    H5329839   1.379   5.796   0.411  4.4339 -1.3966 -0.9748
  176PVA    H5429840   1.364   5.940   0.494 -0.3119 -0.0774 -2.6687
  176PVA    C2829841   1.379   5.768   0.644 -0.6127 -0.0720 -1.4539
  176PVA    H5529842   1.378   5.841   0.726 -5.9160  1.9756 -2.9432
  176PVA    H5629843   1.464   5.700   0.661  0.0107  1.0428  0.1616
  176PVA    C2929844   1.238   5.690   0.655  1.1659 -0.2481  0.1777
  176PVA    H5729845   1.218   5.636   0.561  1.6018  0.1399 -0.1446
  176PVA    O1029846   1.125   5.777   0.661 -0.1358 -0.8742  0.4756
  176PVA    H5829847   1.127   5.840   0.735 -1.3723  1.0408 -0.9996
  176PVA    C3029848   1.245   5.572   0.755  0.1864  0.4819 -0.2471
  176PVA    H5929849   1.307   5.489   0.720 -0.7789  0.5825 -2.3495
  176PVA    H6029850   1.306   5.602   0.841 -1.1976 -3.6323  2.4748
  176PVA    C3129851   1.108   5.530   0.816  0.5777 -0.3761  0.1777
  176PVA    H6129852   1.040   5.500   0.736  1.5184 -0.6679 -0.5284
  176PVA    H6229853   1.054   5.605   0.877 -1.5336 -0.3636 -1.5738
  176PVA    C3229854   1.124   5.406   0.900  0.3012 -0.0440  0.2686
  176PVA    H6329855   1.167   5.321   0.845  1.2345 -0.4612  1.5742
  176PVA    O1129856   1.197   5.425   1.021 -0.2346  0.5870 -0.1118
  176PVA    H6429857   1.273   5.485   1.009  1.1805 -1.0910  0.0442
  176PVA    C3329858   0.991   5.351   0.955  0.1684 -0.3121  0.5177
  176PVA    H6529859   0.933   5.333   0.864  0.2674  1.1209  0.1370
  176PVA    H6629860   0.939   5.427   1.015 -1.2627 -3.1362  3.1151
  176PVA    C3429861   0.975   5.222   1.052  1.3113  0.8937 -0.0284
  176PVA    H6729862   1.048   5.224   1.133  1.0928 -0.1633  0.2164
  176PVA    H6829863   1.010   5.148   0.978 -2.8222  0.8926 -2.2975
  176PVA    C3529864   0.821   5.192   1.099  0.1245  0.0066  0.7349
  176PVA    H6929865   0.752   5.235   1.026  0.0016 -0.9698  0.2612
  176PVA    O1229866   0.806   5.246   1.228  0.0251  0.2237 -0.5440
  176PVA    H7029867   0.758   5.185   1.287 -1.7371  1.4633 -0.5910
  176PVA    C3629868   0.784   5.042   1.109 -0.1479 -0.5730  0.4398
  176PVA    H7129869   0.768   5.003   1.007  0.5146 -3.1146  1.2328
  176PVA    H7229870   0.876   5.006   1.156  0.6822  1.2476  0.3189
  176PVA    C3729871   0.652   4.999   1.180 -0.1570 -0.7013 -0.0693
  176PVA    H7329872   0.571   5.072   1.165 -2.0167 -1.9966  2.8384
  176PVA    H7429873   0.672   5.007   1.288 -1.3626 -2.5831  0.3456
  176PVA    C3829874   0.585   4.859   1.151  0.5442 -1.0321  0.1304
  176PVA    H7529875   0.658   4.778   1.170  1.2550 -0.9419 -1.9805
  176PVA    O1329876   0.542   4.885   1.016 -0.2650 -0.1302  0.5585
  176PVA    H7629877   0.535   4.794   0.980  2.1398 -2.1074  4.4155
  176PVA    C3929878   0.444   4.840   1.214  0.0254  0.3377  0.5912
  176PVA    H7729879   0.382   4.929   1.199 -2.5216 -0.7284  3.7263
  176PVA    H7829880   0.450   4.828   1.323  1.6213  0.8400  0.5826
  176PVA    C4029881   0.360   4.721   1.165 -0.4443 -0.0796 -0.8650
  176PVA    H7929882   0.339   4.727   1.057  2.4902  5.5238 -1.4752
  176PVA    H8029883   0.421   4.630   1.158  0.4755  0.3893  0.7167
  176PVA    C4129884   0.226   4.701   1.254 -0.5082  1.1989 -0.2315
  176PVA    H8129885   0.177   4.797   1.270 -1.1630  0.8398 -0.0673
  176PVA    O1429886   0.278   4.648   1.374 -0.1427  0.6194  0.0431
  176PVA    H8229887   0.355   4.590   1.372  2.5475  3.8730 -1.2346
  176PVA    C4229888   0.112   4.600   1.197 -1.5342 -0.3599  0.4244
  176PVA    H8329889   0.052   4.650   1.120 -3.6838 -1.7665  1.0909
  176PVA    H8429890   0.158   4.510   1.154 -1.5018  0.1633 -0.6796
  176PVA    C4329891   7.761   4.560   1.311 -0.2282  0.5507 -0.2423
  176PVA    H8529892   7.739   4.652   1.366  3.8295 -0.7485  4.2222
  176PVA    H8629893   0.061   4.509   1.383 -0.1880  2.6137  1.2752
  176PVA    C4429894   7.648   4.458   1.274 -1.1891 -0.0749  0.4819
  176PVA    H8729895   7.580   4.505   1.202  3.4389  0.4001 -4.2020
  176PVA    O1529896   7.713   4.356   1.206 -1.0127  0.4500 -0.1667
  176PVA    H8829897   7.643   4.292   1.184  0.5371 -3.3807  4.2744
  176PVA    C4529898   7.551   4.409   1.380 -0.3849 -1.0348  0.2784
  176PVA    H8929899   7.520   4.505   1.424  1.2229 -0.7708  0.9058
  176PVA    H9029900   7.601   4.355   1.461  0.9051  0.1972  0.3471
  176PVA    C4629901   7.428   4.321   1.333 -0.5570 -0.8610 -0.0891
  176PVA    H9129902   7.470   4.235   1.279  1.3250  0.2725 -0.5331
  176PVA    H9229903   7.381   4.371   1.247  4.0976  3.0712 -0.8163
  176PVA    C4729904   7.312   4.281   1.437  0.2022  0.4099 -0.2981
  176PVA    H9329905   7.342   4.353   1.515 -0.1604 -0.2841  0.4991
  176PVA    O1629906   7.332   4.144   1.476  0.7199  0.0437  0.2021
  176PVA    H9429907   7.362   4.098   1.395 -4.6162 -4.1692  0.0357
  176PVA    C4829908   7.153   4.294   1.387 -0.7367 -0.2235 -1.2050
  176PVA    H9529909   7.104   4.377   1.440 -0.2776 -3.3188  4.9226
  176PVA    H9629910   7.148   4.321   1.281  0.0263 -0.5949 -1.3438
  176PVA    C4929911   7.064   4.180   1.419  0.6350 -0.4378 -0.7480
  176PVA    H9729912   7.079   4.146   1.523 -2.3421 -0.0769 -0.1105
  176PVA    H9829913   7.075   4.105   1.341  1.0289  0.9920 -2.1043
  176PVA    C5029914   6.912   4.220   1.396 -0.7120  0.7197 -0.6166
  176PVA    H9929915   6.897   4.310   1.457  1.3393  1.6548 -1.3575
  176PVA    O1729916   6.885   4.230   1.257  0.5201  0.1550 -0.5357
  176PVA   H10029917   6.922   4.320   1.250 -2.0711  1.2763 -1.0543
  176PVA    C5129918   6.808   4.122   1.468 -0.5351  0.2477 -0.8688
  176PVA   H10129919   6.819   4.142   1.575  5.0617 -0.6430 -0.9843
  176PVA   H10229920   6.826   4.014   1.460  5.2802  0.8955 -0.2713
  177PVA     C129921   1.057   0.903   0.561 -1.1535 -0.6560 -0.0098
  177PVA     H129922   1.139   0.903   0.488 -0.0802  0.2369  1.1520
  177PVA     H229923   1.086   0.809   0.609 -1.4852 -2.3242 -2.8641
  177PVA     C229924   1.054   1.037   0.649 -0.3193 -0.4435 -1.2333
  177PVA     H329925   0.955   1.082   0.632  1.3515  2.9728 -2.9247
  177PVA     O129926   1.136   1.137   0.588 -0.7201  0.0124  0.3511
  177PVA     H429927   1.156   1.106   0.498 -2.0298  0.4615 -0.1216
  177PVA     C329928   1.096   1.010   0.803 -0.5680 -0.4554 -0.9002
  177PVA     H529929   1.174   0.933   0.800  1.6933  1.6271  0.4912
  177PVA     H629930   1.009   0.979   0.863 -1.3425  2.5375 -0.3155
  177PVA     C429931   1.159   1.129   0.889 -0.6258 -0.7041 -0.2925
  177PVA     H729932   1.262   1.117   0.853  0.4599 -1.3874  2.7472
  177PVA     H829933   1.106   1.220   0.857 -0.9918 -1.2824 -1.3819
  177PVA     C529934   1.145   1.098   1.040 -0.5553 -1.1453 -0.7869
  177PVA     H929935   1.043   1.076   1.073  0.0365  0.1356  2.2506
  177PVA     O229936   1.229   0.984   1.053 -0.6427 -0.5275 -0.7175
  177PVA    H1029937   1.317   1.026   1.057 -1.5132  1.2578  1.3836
  177PVA     C629938   1.193   1.205   1.147  0.4161 -0.4657  0.2587
  177PVA    H1129939   1.145   1.299   1.118 -1.7617 -1.1251  1.4939
  177PVA    H1229940   1.138   1.174   1.236 -2.3202  1.8164 -0.4999
  177PVA     C729941   1.339   1.227   1.188 -0.8584 -0.7294 -0.0552
  177PVA    H1329942   1.398   1.251   1.098  0.4996 -0.9179  0.7610
  177PVA    H1429943   1.385   1.142   1.239 -0.4920 -0.2567  0.4167
  177PVA     C829944   1.359   1.339   1.301  0.0738  0.6493  0.8113
  177PVA    H1529945   1.297   1.304   1.384 -3.2790 -3.6857 -2.9555
  177PVA     O329946   1.318   1.471   1.255 -0.2803 -0.5734 -0.0690
  177PVA    H1629947   1.409   1.505   1.263  0.9726 -2.9126 -2.6887
  177PVA     C929948   1.501   1.345   1.364  0.1311  0.0801  0.4848
  177PVA    H1729949   1.575   1.365   1.285  0.5245  3.4895  1.5302
  177PVA    H1829950   1.519   1.246   1.407  5.6826  0.7872  0.5396
  177PVA    C1029951   1.541   1.415   1.500  0.5489 -0.4523 -0.2282
  177PVA    H1929952   1.540   1.520   1.470  1.1027 -0.5984 -0.7692
  177PVA    H2029953   1.461   1.401   1.573  2.4142 -3.7539  1.4372
  177PVA    C1129954   1.683   1.391   1.579 -0.4681 -0.1967 -1.1825
  177PVA    H2129955   1.771   1.397   1.514 -1.3039 -3.9649 -2.9788
  177PVA     O429956   1.696   1.499   1.673  1.0454  0.8419 -0.1539
  177PVA    H2229957   1.721   1.575   1.617  2.9374 -0.4110 -1.0866
  177PVA    C1229958   1.704   1.264   1.680 -0.9605 -0.1486 -0.2783
  177PVA    H2329959   1.610   1.259   1.736 -1.5022 -1.6807 -1.2371
  177PVA    H2429960   1.689   1.176   1.616 -0.4502 -1.1043  0.8750
  177PVA    C1329961   1.844   1.258   1.761  0.6626 -0.0159 -0.0087
  177PVA    H2529962   1.846   1.344   1.829 -0.0711 -1.8076  2.4309
  177PVA    H2629963   1.930   1.260   1.694 -0.6961  2.6708 -1.8266
  177PVA    C1429964   1.855   1.151   1.879 -0.4681  0.5238  1.1263
  177PVA    H2729965   1.830   1.204   1.971  0.9724  1.3406  1.0687
  177PVA     O529966   1.742   1.066   1.881  0.0327  0.7716 -0.0835
  177PVA    H2829967   1.719   1.024   1.796 -4.3277 -1.2413  1.8219
  177PVA    C1529968   1.988   1.087   1.927  0.3467 -0.1109  0.5042
  177PVA    H2929969   2.016   1.030   1.837 -0.6067  0.2038 -0.0083
  177PVA    H3029970   2.067   1.164   1.928 -0.3288  0.6137 -0.3935
  177PVA    C1629971   2.002   1.003   2.063 -0.9083 -0.0921 -0.1201
  177PVA    H3129972   2.084   1.047   2.122  1.4271 -1.5366 -2.0791
  177PVA    H3229973   1.898   1.011   2.097 -1.8144 -0.9915 -2.4457
  177PVA    C1729974   2.037   0.850   2.082  0.3940  0.6696 -1.4375
  177PVA    H3329975   1.940   0.799   2.085  1.1421 -0.7660  1.8372
  177PVA     O629976   2.071   0.831   2.211 -0.8034 -0.4041 -0.8048
  177PVA    H3429977   2.071   0.734   2.218 -0.3732 -0.4299 -1.1408
  177PVA    C1829978   2.145   0.775   1.995  0.6416  0.3484  0.0149
  177PVA    H3529979   2.122   0.807   1.893  2.9260 -2.2295 -1.4427
  177PVA    H3629980   2.245   0.799   2.033  0.2125  1.2897  0.5872
  177PVA    C1929981   2.127   0.618   2.000 -0.2560 -0.9313  0.0386
  177PVA    H3729982   2.025   0.584   1.981  0.2037 -2.2214 -0.2621
  177PVA    H3829983   2.139   0.594   2.106 -4.8310  2.2083  1.5502
  177PVA    C2029984   2.220   0.517   1.918  0.2046 -0.5187  2.2505
  177PVA    H3929985   2.251   0.576   1.831 -3.6353 -0.6513  0.5943
  177PVA     O729986   2.322   0.489   2.014 -1.0598 -0.1628 -0.0532
  177PVA    H4029987   2.360   0.578   2.022 -1.3917 -0.0583  0.3612
  177PVA    C2129988   2.165   0.374   1.866 -0.5279  0.3525  0.1690
  177PVA    H4129989   2.079   0.388   1.801 -0.3894  0.6048  0.0397
  177PVA    H4229990   2.124   0.336   1.961 -0.6444  3.8870  1.6922
  177PVA    C2229991   2.257   0.255   1.829  0.5571 -0.5669 -0.5227
  177PVA    H4329992   2.271   0.265   1.721  1.1427  2.0037 -0.2672
  177PVA    H4429993   2.359   0.251   1.869  2.2038  0.8060 -4.1294
  177PVA    C2329994   2.193   0.111   1.847 -0.3899 -0.4528 -0.1012
  177PVA    H4529995   2.127   0.120   1.934  0.7791  3.5693  0.5578
  177PVA     O829996   2.099   0.088   1.744  0.0882  0.6472  0.4989
  177PVA    H4629997   2.061   0.166   1.700 -1.1837  0.3561  1.0478
  177PVA    C2429998   2.270   7.671   1.880 -0.2266  0.2305  0.4439
  177PVA    H4729999   2.215   7.585   1.839 -2.8107  0.9968  2.0982
  177PVA    H4830000   2.370   7.675   1.835 -0.6033  1.8023 -0.2975
  177PVA    C2530001   2.269   7.626   2.034  0.0568 -0.7357  0.2226
  177PVA    H4930002   2.181   7.665   2.086 -0.5753  2.0841 -2.6531
  177PVA    H5030003   2.353   0.002   2.070  0.1167  0.1768 -1.3617
  177PVA    C2630004   2.326   7.492   2.101  0.5552  0.3799 -0.5557
  177PVA    H5130005   2.426   7.470   2.062  1.2200  1.7703  0.2299
  177PVA     O930006   2.242   7.385   2.070 -0.2829 -0.1161  1.1163
  177PVA    H5230007   2.294   7.311   2.105  2.7417  1.9985  1.4781
  177PVA    C2730008   2.343   7.479   2.259 -0.5366 -0.1037  0.5045
  177PVA    H5330009   2.249   7.457   2.311  0.7116  0.4935  3.1439
  177PVA    H5430010   2.381   7.573   2.299 -0.5663  0.8839 -1.6506
  177PVA    C2830011   2.435   7.355   2.315  0.6348 -0.1114  0.4461
  177PVA    H5530012   2.415   7.266   2.254  3.4877 -2.8538  3.0918
  177PVA    H5630013   2.542   7.370   2.293  0.4252 -0.1982 -0.6691
  177PVA    C2930014   2.403   7.296   2.457  0.2046 -0.3478  0.0599
  177PVA    H5730015   2.325   7.221   2.436  0.7514 -0.4312 -1.8809
  177PVA    O1030016   2.352   7.393   2.544  0.4381  0.5512  0.5686
  177PVA    H5830017   2.342   7.467   2.483  0.3208 -1.1449 -1.6018
  177PVA    C3030018   2.522   7.221   2.531 -0.5368 -0.4601  0.0326
  177PVA    H5930019   2.561   7.153   2.453  0.0262 -1.0606  0.8207
  177PVA    H6030020   2.609   7.286   2.547 -3.5027  4.2017 -0.7753
  177PVA    C3130021   2.498   7.115   2.647  0.8811  0.7822 -0.1175
  177PVA    H6130022   2.588   7.066   2.687  1.6209  1.2955 -1.1241
  177PVA    H6230023   2.438   7.033   2.605  3.1500 -0.6183 -0.8161
  177PVA    C3230024   2.409   7.183   2.768  0.6815 -0.8167  0.4106
  177PVA    H6330025   2.313   7.211   2.723  3.3147  4.7728 -2.7473
  177PVA    O1130026   2.457   7.301   2.818  0.4115 -0.4593 -0.1948
  177PVA    H6430027   2.419   7.367   2.757 -3.3742 -1.1938  1.0622
  177PVA    C3330028   2.394   7.103   2.901 -0.9558  0.7217  1.0782
  177PVA    H6530029   2.496   7.090   2.940 -0.0799  3.7612  0.1364
  177PVA    H6630030   2.373   6.999   2.877  2.2262 -0.8454  4.1854
  177PVA    C3430031   2.295   7.151   3.014 -0.1233 -0.0040 -0.3009
  177PVA    H6730032   2.296   7.260   3.019 -1.7632 -0.0132  1.5715
  177PVA    H6830033   2.190   7.126   2.992 -0.7353  1.1792  1.1509
  177PVA    C3530034   2.320   7.094   3.156  0.2686  0.2975 -0.8392
  177PVA    H6930035   2.294   6.989   3.139 -0.5562  0.8775 -3.7623
  177PVA    O1230036   2.458   7.101   3.201  0.1259  0.4369 -0.2808
  177PVA    H7030037   2.511   7.060   3.131 -0.0787 -0.5224  0.0973
  177PVA    C3630038   2.238   7.161   3.285 -0.8047  0.9608 -0.3184
  177PVA    H7130039   2.222   7.269   3.270  0.2451  0.8029 -3.2926
  177PVA    H7230040   2.136   7.120   3.291 -0.7272  0.7945 -0.1293
  177PVA    C3730041   2.303   7.105   3.416  0.9117 -0.4081 -0.2005
  177PVA    H7330042   2.406   7.142   3.424  0.4514  0.7052  7.0375
  177PVA    H7430043   2.312   6.997   3.406  0.7077 -0.3914 -0.5791
  177PVA    C3830044   2.248   7.143   3.561 -0.2254 -0.6593 -0.3527
  177PVA    H7530045   2.237   7.252   3.556  0.5105 -0.5185  0.6802
  177PVA    O1330046   2.123   7.083   3.591 -0.0061 -0.8650 -0.1484
  177PVA    H7630047   2.060   7.152   3.563 -0.1113  1.4378  4.6040
  177PVA    C3930048   2.359   7.132   3.689 -0.0563 -0.4180  0.4182
  177PVA    H7730049   2.340   7.210   3.764  3.2885 -0.5624  1.6159
  177PVA    H7830050   2.460   7.167   3.665 -1.1921  2.1379 -1.0129
  177PVA    C4030051   2.378   6.997   3.772  0.3508  0.9220 -0.1274
  177PVA    H7930052   2.283   6.972   3.822 -1.4275  0.0135 -3.6628
  177PVA    H8030053   2.393   6.924   3.692  3.0314  1.9123 -0.6189
  177PVA    C4130054   2.493   6.956   3.875  0.1252 -0.0060  0.9061
  177PVA    H8130055   2.437   6.991   3.963  2.6217 -3.0818  3.9976
  177PVA    O1430056   2.620   7.007   3.845  0.4308  0.5842  0.8606
  177PVA    H8230057   2.652   6.973   3.759 -1.2497  2.7147 -0.7153
  177PVA    C4230058   2.525   6.800   3.919  0.6282 -1.0938 -0.2532
  177PVA    H8330059   2.434   6.738   3.917 -2.7741  3.4280 -1.5236
  177PVA    H8430060   2.596   6.765   3.843  0.7605  3.8562 -2.8173
  177PVA    C4330061   2.588   6.787   4.060 -0.3952  0.4976 -0.1729
  177PVA    H8530062   2.503   6.792   4.129 -1.2350 -0.1181 -1.1438
  177PVA    H8630063   2.658   6.869   4.081  1.5034 -1.4715  1.8579
  177PVA    C4430064   2.652   6.653   4.123  0.1911  0.4226 -0.4418
  177PVA    H8730065   2.588   6.572   4.088  0.8592 -1.1703  1.7793
  177PVA    O1530066   2.770   6.635   4.056 -0.1263 -0.5231  0.7708
  177PVA    H8830067   2.841   6.676   4.108  1.0441 -1.1519 -0.2755
  177PVA    C4530068   2.673   6.618   4.268 -0.5126 -0.5894 -0.3043
  177PVA    H8930069   2.726   6.689   4.333  0.3970 -1.8809  0.4059
  177PVA    H9030070   2.578   6.617   4.322 -0.1558 -1.4387  0.3340
  177PVA    C4630071   2.738   6.473   4.303  0.0725  0.1386 -0.3216
  177PVA    H9130072   2.688   6.397   4.242  0.9451 -0.7603  0.0521
  177PVA    H9230073   2.838   6.443   4.272 -0.6459 -2.2500 -0.5859
  177PVA    C4730074   2.725   6.423   4.463 -0.2780 -0.3171  0.3450
  177PVA    H9330075   2.784   6.501   4.512 -4.9081  1.4049  3.9555
  177PVA    O1630076   2.597   6.434   4.510  0.1448 -0.4938 -0.7350
  177PVA    H9430077   2.562   6.359   4.561 -1.3862  1.9905  2.1990
  177PVA    C4830078   2.784   6.278   4.495  0.9276 -1.0326  0.3281
  177PVA    H9530079   2.747   6.222   4.409  2.6835 -1.4891 -0.1817
  177PVA    H9630080   2.892   6.294   4.489  0.6428  1.3345  0.6173
  177PVA    C4930081   2.762   6.213   4.637 -0.5542 -0.0867 -0.1242
  177PVA    H9730082   2.674   6.238   4.697  0.9321 -1.0975  2.6609
  177PVA    H9830083   2.839   6.269   4.691  0.6125  0.7175 -2.4705
  177PVA    C5030084   2.776   6.057   4.653  0.4649 -0.2648  0.2039
  177PVA    H9930085   2.682   6.010   4.622 -0.2118  0.1663  1.5625
  177PVA    O1730086   2.875   6.000   4.573 -1.2027  1.5197 -0.7850
  177PVA   H10030087   2.961   6.033   4.604 -1.5530  0.6695  1.2268
  177PVA    C5130088   2.778   6.005   4.801  0.4483  0.7967  0.0932
  177PVA   H10130089   2.875   6.006   4.852  0.9210  1.3764 -0.7869
  177PVA   H10230090   2.717   6.080   4.852  2.7808  2.3606  0.7634
  178PVA     C130091   5.673   3.723   1.527 -0.7781  1.1913  0.6973
  178PVA     H130092   5.683   3.823   1.570  2.5682  0.2899  2.3621
  178PVA     H230093   5.635   3.747   1.427 -1.6736  2.6966  1.3769
  178PVA     C230094   5.580   3.650   1.618  0.0674 -0.3072  0.9680
  178PVA     H330095   5.621   3.654   1.720 -2.5493  0.0893  2.0814
  178PVA     O130096   5.560   3.514   1.584  0.5451  1.1218  0.9439
  178PVA     H430097   5.649   3.483   1.557  0.6342  0.2410  2.1976
  178PVA     C330098   5.436   3.706   1.617 -0.0915 -0.4175  0.1632
  178PVA     H530099   5.399   3.672   1.519  3.4101  2.9852 -2.6831
  178PVA     H630100   5.459   3.813   1.621  1.8784 -0.7460 -0.9268
  178PVA     C430101   5.341   3.661   1.733  0.1846  0.3425  0.2137
  178PVA     H730102   5.293   3.565   1.708  1.6249 -0.9224  2.0691
  178PVA     H830103   5.408   3.646   1.819 -1.5443 -3.6685  1.1146
  178PVA     C530104   5.233   3.769   1.768  1.7440  0.1776 -0.4841
  178PVA     H930105   5.173   3.808   1.684 -2.9925 -0.1799  2.3730
  178PVA     O230106   5.298   3.889   1.823  1.0049 -0.2749  0.5003
  178PVA    H1030107   5.295   3.941   1.741  1.1357  0.1034  0.7305
  178PVA     C630108   5.120   3.722   1.871 -0.2692  0.4402  0.1447
  178PVA    H1130109   5.151   3.689   1.971  0.6349 -5.2185 -1.6359
  178PVA    H1230110   5.071   3.635   1.825 -2.3457  2.1812 -1.1175
  178PVA     C730111   4.990   3.809   1.878 -0.1124  1.3712 -0.4282
  178PVA    H1330112   4.946   3.837   1.781  0.5024  2.4631 -0.4012
  178PVA    H1430113   5.017   3.910   1.911  0.8362  0.8469  0.4662
  178PVA     C830114   4.879   3.738   1.970 -1.5227 -1.1958 -0.5824
  178PVA    H1530115   4.876   3.634   1.935  1.0936 -2.3767  2.2721
  178PVA     O330116   4.923   3.740   2.108 -1.3862  0.0602  1.2785
  178PVA    H1630117   4.873   3.812   2.150 -3.2923  1.1272 -2.3539
  178PVA     C930118   4.744   3.806   1.964  0.7401 -0.4803  0.0364
  178PVA    H1730119   4.769   3.911   1.981  1.5660 -1.0176  2.8114
  178PVA    H1830120   4.689   3.790   1.871 -1.2091  0.9091  0.8867
  178PVA    C1030121   4.659   3.778   2.078  0.0185  1.6461  0.4402
  178PVA    H1930122   4.716   3.800   2.169 -0.0009 -1.1433  1.2375
  178PVA    H2030123   4.643   3.670   2.090  2.2491  1.0585 -1.2590
  178PVA    C1130124   4.525   3.859   2.085 -0.6976  0.0380  0.5848
  178PVA    H2130125   4.523   3.930   2.001 -1.1829  1.4417  1.7255
  178PVA     O430126   4.414   3.766   2.058 -0.3710 -0.0956  0.2299
  178PVA    H2230127   4.425   3.690   2.118  1.8862 -0.7127 -0.8398
  178PVA    C1230128   4.492   3.950   2.215 -0.5562  0.4959  1.2001
  178PVA    H2330129   4.507   3.887   2.303  4.8735 -1.1835 -0.5215
  178PVA    H2430130   4.559   4.036   2.229  2.8606 -1.4722 -1.6306
  178PVA    C1330131   4.355   4.015   2.205  0.8110  0.9263  0.2742
  178PVA    H2530132   4.286   3.946   2.255 -1.8182  0.5454 -3.4277
  178PVA    H2630133   4.335   4.005   2.097  0.7861  0.5144  0.3144
  178PVA    C1430134   4.336   4.163   2.256  0.3024 -0.6752  0.4388
  178PVA    H2730135   4.336   4.228   2.168 -2.1978  5.2509  4.1537
  178PVA     O530136   4.427   4.209   2.348 -0.8359 -0.1682 -0.4153
  178PVA    H2830137   4.392   4.164   2.428 -1.5031 -2.7260 -2.0032
  178PVA    C1530138   4.194   4.165   2.312 -0.8856  0.7792  0.2315
  178PVA    H2930139   4.188   4.113   2.408 -3.2488  1.3831  0.4986
  178PVA    H3030140   4.126   4.123   2.237 -0.7049 -1.0191  1.0285
  178PVA    C1630141   4.159   4.312   2.351  0.2133  0.2219  0.3954
  178PVA    H3130142   4.237   4.352   2.417  0.5510  1.0254 -0.4670
  178PVA    H3230143   4.154   4.358   2.251  2.0585 -1.6957 -0.6454
  178PVA    C1730144   4.016   4.335   2.426 -0.4914  0.3934  0.0537
  178PVA    H3330145   4.009   4.268   2.513 -3.1157  0.0688 -0.3148
  178PVA     O630146   4.020   4.469   2.466  0.3743 -0.3801 -0.7327
  178PVA    H3430147   4.085   4.503   2.402  0.1069 -0.0908 -0.8507
  178PVA    C1830148   3.902   4.327   2.325  0.6249 -0.0741  1.0958
  178PVA    H3530149   3.941   4.384   2.240  1.3271 -1.0202  0.7667
  178PVA    H3630150   3.880   4.222   2.302 -0.9757  0.8703 -2.2021
  178PVA    C1930151   3.769   4.403   2.371  0.0183  0.3711 -0.7725
  178PVA    H3730152   3.784   4.490   2.435  1.2874 -2.8710  3.9099
  178PVA    H3830153   3.713   4.340   2.441 -0.2447  2.2357  0.7658
  178PVA    C2030154   3.677   4.440   2.250  0.2495  1.0974 -0.1866
  178PVA    H3930155   3.665   4.354   2.183  2.7084  0.1579  0.4686
  178PVA     O730156   3.724   4.549   2.186  1.0624  0.0597 -0.4194
  178PVA    H4030157   3.662   4.625   2.191 -0.8089 -1.4346  0.4984
  178PVA    C2130158   3.528   4.470   2.296  0.1190  0.7110 -0.1671
  178PVA    H4130159   3.531   4.549   2.372 -2.4980  0.9416 -0.2268
  178PVA    H4230160   3.481   4.381   2.340  1.3787 -0.1169 -0.4476
  178PVA    C2230161   3.434   4.499   2.171 -0.7423  0.1593 -0.6067
  178PVA    H4330162   3.474   4.572   2.100 -1.5327  0.5229 -0.7001
  178PVA    H4430163   3.415   4.407   2.115 -0.6018 -1.7902  2.3259
  178PVA    C2330164   3.291   4.554   2.207  0.8598 -0.5639  0.1662
  178PVA    H4530165   3.251   4.556   2.105  0.2898 -1.8532  0.3479
  178PVA     O830166   3.300   4.687   2.260  0.1127  0.4337 -0.5210
  178PVA    H4630167   3.221   4.741   2.247  0.7599  1.6397  0.2972
  178PVA    C2430168   3.197   4.461   2.291  0.3622  0.3522 -0.2618
  178PVA    H4730169   3.182   4.367   2.236  1.4430  0.1670 -0.2611
  178PVA    H4830170   3.256   4.434   2.380 -0.0717  4.6273  1.5583
  178PVA    C2530171   3.057   4.518   2.341  0.3335 -0.4200 -0.0058
  178PVA    H4930172   3.004   4.580   2.267 -0.0398 -1.9918 -1.1068
  178PVA    H5030173   3.079   4.577   2.431  0.9627  0.1533 -0.5223
  178PVA    C2630174   2.957   4.419   2.400  0.6084  0.0337  0.1714
  178PVA    H5130175   3.008   4.363   2.480 -1.0456  0.5154  1.6291
  178PVA     O930176   2.929   4.347   2.279  1.1808 -0.4424 -0.7975
  178PVA    H5230177   2.856   4.286   2.299 -0.1518  1.1564 -0.5651
  178PVA    C2730178   2.829   4.473   2.453 -0.4496  0.1117 -1.1938
  178PVA    H5330179   2.775   4.393   2.506  4.1479 -4.1620 -2.2358
  178PVA    H5430180   2.781   4.519   2.365 -1.8533 -0.1189 -0.5791
  178PVA    C2830181   2.841   4.582   2.562  0.8210  1.3292  0.1716
  178PVA    H5530182   2.891   4.561   2.656  1.4705 -2.1875 -0.8444
  178PVA    H5630183   2.906   4.663   2.525  0.4442  1.0172 -1.2568
  178PVA    C2930184   2.711   4.648   2.613 -0.7725 -1.1121 -0.3384
  178PVA    H5730185   2.654   4.563   2.651  3.3898 -5.2379 -2.3898
  178PVA    O1030186   2.640   4.708   2.519  0.3225 -0.3900 -0.6076
  178PVA    H5830187   2.667   4.779   2.458 -0.2602  0.9231  0.5861
  178PVA    C3030188   2.751   4.760   2.725 -0.0865  0.2471  0.8934
  178PVA    H5930189   2.677   4.744   2.804  4.6073 -5.0229  5.0801
  178PVA    H6030190   2.833   4.716   2.784 -0.7412 -1.9329  0.3048
  178PVA    C3130191   2.741   4.916   2.712  0.2317  0.1884 -0.3614
  178PVA    H6130192   2.638   4.936   2.683  0.0754  1.0545  0.6993
  178PVA    H6230193   2.790   4.950   2.620 -0.5825 -0.4301 -1.0367
  178PVA    C3230194   2.775   5.003   2.836 -1.6212 -1.0256 -0.4394
  178PVA    H6330195   2.871   4.971   2.879  0.3695  1.8628 -2.2971
  178PVA    O1130196   2.679   4.979   2.938 -0.2925 -0.5655  0.1535
  178PVA    H6430197   2.639   5.068   2.940  0.6444 -0.0988 -0.4494
  178PVA    C3330198   2.799   5.155   2.806  0.4083 -0.4835  0.4595
  178PVA    H6530199   2.708   5.201   2.765  0.4161 -1.2077 -0.4068
  178PVA    H6630200   2.876   5.166   2.728  1.5174 -0.5475  1.5295
  178PVA    C3430201   2.854   5.221   2.933 -0.1273  0.3425 -0.1965
  178PVA    H6730202   2.947   5.169   2.961 -0.9163 -1.0626 -0.0904
  178PVA    H6830203   2.781   5.194   3.010  0.7291  0.6478  0.7520
  178PVA    C3530204   2.860   5.378   2.937 -0.0733  0.2247 -0.7341
  178PVA    H6930205   2.754   5.402   2.951 -0.0184 -0.9388  2.4856
  178PVA    O1230206   2.897   5.425   2.812  0.4548 -0.6959 -0.2424
  178PVA    H7030207   2.930   5.515   2.826 -0.0870 -0.5657  0.2703
  178PVA    C3630208   2.947   5.446   3.056  0.8799  0.4576  1.1235
  178PVA    H7130209   3.053   5.427   3.035  0.4662 -0.4126 -0.3496
  178PVA    H7230210   2.922   5.553   3.060 -1.2298  0.0993 -0.4873
  178PVA    C3730211   2.934   5.384   3.198 -0.1847 -0.6924 -0.1255
  178PVA    H7330212   2.941   5.275   3.190  0.5961 -0.8242  1.7852
  178PVA    H7430213   2.826   5.392   3.211 -0.1834 -1.6955  0.7070
  178PVA    C3830214   3.015   5.432   3.326 -0.8391 -0.0601 -1.0564
  178PVA    H7530215   3.115   5.385   3.327 -0.9422 -0.3285  1.4345
  178PVA    O1330216   3.040   5.575   3.331 -0.1352  0.0957  0.4703
  178PVA    H7630217   3.130   5.601   3.357 -1.0048  2.1729  1.6544
  178PVA    C3930218   2.964   5.376   3.459 -0.4437  0.3514  0.4314
  178PVA    H7730219   2.935   5.270   3.455  0.3631  0.1634 -2.2549
  178PVA    H7830220   2.872   5.425   3.495  0.4670  1.2676  1.5935
  178PVA    C4030221   3.052   5.360   3.580 -0.2082 -0.3613 -1.3845
  178PVA    H7930222   3.121   5.278   3.558 -2.7175 -2.4378 -1.9534
  178PVA    H8030223   3.079   5.465   3.598 -2.2087  0.1288 -0.9179
  178PVA    C4130224   2.973   5.300   3.702  0.0882  0.1189  0.6835
  178PVA    H8130225   2.951   5.195   3.679 -0.8832  0.2635  0.9008
  178PVA    O1430226   2.852   5.362   3.743 -0.3333  0.0475 -0.1751
  178PVA    H8230227   2.853   5.457   3.720 -4.0258  0.3222  0.1812
  178PVA    C4230228   3.064   5.287   3.833 -0.5308  0.2548 -0.9742
  178PVA    H8330229   3.169   5.273   3.806  0.2084 -2.8558  2.6305
  178PVA    H8430230   3.065   5.380   3.891  1.3320 -1.2168  1.6022
  178PVA    C4330231   3.024   5.170   3.932 -0.3049  0.0466 -0.0200
  178PVA    H8530232   3.100   5.090   3.925  0.6005  0.3958  3.7782
  178PVA    H8630233   2.925   5.144   3.892  0.3342 -1.3478 -0.8040
  178PVA    C4430234   3.007   5.184   4.085 -0.7994  0.7049  0.3540
  178PVA    H8730235   2.919   5.249   4.092 -0.3022  1.7978 -2.2979
  178PVA    O1530236   3.124   5.237   4.134 -1.4221  0.0820  0.2901
  178PVA    H8830237   3.109   5.333   4.147  1.8198  0.9876 -1.4538
  178PVA    C4530238   2.970   5.056   4.169 -1.2108 -0.5142 -1.2494
  178PVA    H8930239   3.047   4.982   4.195 -0.6784 -0.1060 -1.6491
  178PVA    H9030240   2.920   4.994   4.093 -2.4688  0.1680 -1.0045
  178PVA    C4630241   2.869   5.075   4.296 -0.0126 -0.3460 -0.4068
  178PVA    H9130242   2.798   5.155   4.270  0.1757  1.1724  3.2711
  178PVA    H9230243   2.818   4.978   4.307  2.9145 -2.3229 -2.5219
  178PVA    C4730244   2.933   5.117   4.428 -0.3033  0.6753  0.5299
  178PVA    H9330245   3.008   5.191   4.397 -1.3607  1.3139 -0.6094
  178PVA    O1630246   2.985   4.997   4.496 -0.5786 -0.2231 -0.4867
  178PVA    H9430247   3.072   4.972   4.460 -1.3314 -0.6615 -2.1381
  178PVA    C4830248   2.834   5.193   4.503  0.3117 -1.2035 -0.0959
  178PVA    H9530249   2.775   5.109   4.541 -0.0209 -1.4368 -1.1012
  178PVA    H9630250   2.772   5.261   4.443  0.0683  2.8618  4.1540
  178PVA    C4930251   2.891   5.280   4.622  0.5706  0.0591  0.2129
  178PVA    H9730252   2.989   5.318   4.591  0.5381 -0.1990 -0.2185
  178PVA    H9830253   2.895   5.211   4.707 -0.8528  1.3577  1.4121
  178PVA    C5030254   2.804   5.401   4.675  0.1064  0.4672  0.6745
  178PVA    H9930255   2.800   5.465   4.586 -0.2625 -0.1701  0.2234
  178PVA    O1730256   2.674   5.352   4.703 -0.0998  0.5520 -0.0544
  178PVA   H10030257   2.678   5.306   4.789  4.0757  0.2226 -0.1951
  178PVA    C5130258   2.861   5.494   4.792 -0.4750  1.2975  0.0493
  178PVA   H10130259   2.949   5.545   4.750 -1.8622  3.8134  0.0020
  178PVA   H10230260   2.881   5.429   4.878 -2.3882  1.1986  0.4626
  179PVA     C130261   5.994   3.462   1.243  0.1712  0.3221 -0.7121
  179PVA     H130262   5.950   3.509   1.154  1.0073  0.8394 -0.8577
  179PVA     H230263   6.102   3.449   1.227  0.1709 -3.5311  1.1907
  179PVA     C230264   5.965   3.308   1.238 -0.6589 -1.2585 -0.3164
  179PVA     H330265   5.856   3.314   1.250 -0.5705  1.1660 -0.2313
  179PVA     O130266   6.021   3.237   1.347 -0.4230  1.0620 -0.5590
  179PVA     H430267   6.115   3.232   1.320 -0.7761  1.0005 -1.8088
  179PVA     C330268   6.022   3.245   1.110  0.1039 -0.0655  1.0578
  179PVA     H530269   6.131   3.237   1.120  0.2520  1.1044  0.5805
  179PVA     H630270   5.995   3.304   1.021  2.9388 -4.4355 -3.2906
  179PVA     C430271   5.964   3.111   1.063 -0.9489 -0.3213  0.2798
  179PVA     H730272   5.928   3.047   1.144 -2.5686  0.4973  0.2467
  179PVA     H830273   5.868   3.140   1.018 -0.9047  1.1175  1.0611
  179PVA     C530274   6.037   3.029   0.957  0.7509  0.5185  0.2832
  179PVA     H930275   6.078   3.094   0.879  3.1024 -0.4564  0.5986
  179PVA     O230276   6.146   2.970   1.024  0.2955 -0.7345 -0.3202
  179PVA    H1030277   6.125   2.875   1.027 -3.3552 -0.1461 -1.8612
  179PVA     C630278   5.956   2.907   0.896 -0.6215  0.4086  0.5510
  179PVA    H1130279   5.917   2.837   0.970  0.7245 -1.4846 -0.4642
  179PVA    H1230280   5.864   2.944   0.849 -0.5386 -2.6062 -2.3310
  179PVA     C730281   6.028   2.832   0.786  0.1858 -0.0220  0.1388
  179PVA    H1330282   6.069   2.746   0.840 -0.1269 -0.8221 -0.8634
  179PVA    H1430283   6.085   2.917   0.747  0.6381  1.8585  4.3698
  179PVA     C830284   5.942   2.776   0.662 -0.4421 -0.4595 -0.2483
  179PVA    H1530285   5.891   2.861   0.614  2.6496  1.9485  0.3912
  179PVA     O330286   5.839   2.690   0.724 -0.1851 -0.2959  1.4021
  179PVA    H1630287   5.767   2.754   0.742  1.0140  1.3229  0.6994
  179PVA     C930288   6.030   2.721   0.551  0.0318 -0.2226 -0.2793
  179PVA    H1730289   6.112   2.793   0.534  2.6502 -3.4482 -2.6770
  179PVA    H1830290   5.981   2.725   0.454  0.2172 -0.8154 -0.4033
  179PVA    C1030291   6.096   2.581   0.572  1.4397  0.0363  0.0716
  179PVA    H1930292   6.184   2.599   0.635  1.6044 -1.1148  0.1935
  179PVA    H2030293   6.036   2.501   0.614  1.8585 -0.8295 -0.9300
  179PVA    C1130294   6.142   2.516   0.441  0.0922 -0.9780  0.7160
  179PVA    H2130295   6.054   2.500   0.377  2.5943 -2.1678 -2.7970
  179PVA     O430296   6.225   2.589   0.362 -0.0928 -0.3926  0.5620
  179PVA    H2230297   6.198   2.563   0.272 -0.9447  1.8949  0.0746
  179PVA    C1230298   6.194   2.369   0.477  0.3886  0.6012  0.8760
  179PVA    H2330299   6.268   2.377   0.557  2.8717 -0.6527 -1.1138
  179PVA    H2430300   6.118   2.303   0.520 -1.1146  1.3010 -0.5954
  179PVA    C1330301   6.251   2.298   0.352  0.1587  0.4700  0.2674
  179PVA    H2530302   6.313   2.211   0.377 -0.4801 -1.4335 -3.8366
  179PVA    H2630303   6.330   2.349   0.294  0.8394 -0.3876  0.4191
  179PVA    C1430304   6.156   2.247   0.229 -0.1630  1.0450 -0.0981
  179PVA    H2730305   6.124   2.334   0.171 -0.2637  0.2833 -1.2263
  179PVA     O530306   6.045   2.203   0.284 -0.6431 -0.4484  0.1640
  179PVA    H2830307   6.086   2.129   0.331  1.3309 -0.2423 -1.1121
  179PVA    C1530308   6.229   2.151   0.134 -0.2887  0.2376 -2.1132
  179PVA    H2930309   6.235   2.057   0.191  0.2782 -0.1175 -2.7445
  179PVA    H3030310   6.334   2.181   0.122  0.3584 -0.4687  0.9286
  179PVA    C1630311   6.172   2.128   8.093 -0.5071  0.0789 -0.3047
  179PVA    H3130312   6.184   2.208   8.017 -0.2094  0.4265  0.1037
  179PVA    H3230313   6.238   2.060   8.037 -4.2136 -1.2305 -3.5734
  179PVA    C1730314   6.034   2.059   8.086 -0.2233 -0.8620 -0.0137
  179PVA    H3330315   5.971   2.110   0.063  0.8091 -0.9180  0.9209
  179PVA     O630316   6.051   1.927   0.024  1.2179 -0.4157 -0.7625
  179PVA    H3430317   6.136   1.906   8.079  3.4239 -2.5178  3.9623
  179PVA    C1830318   5.957   2.060   7.952 -0.2626 -0.5369 -1.3730
  179PVA    H3530319   6.027   2.034   7.871  1.6285  1.4737 -0.4960
  179PVA    H3630320   5.889   1.974   7.963 -0.6441  0.1384  3.0209
  179PVA    C1930321   5.872   2.188   7.936  0.2637 -0.0361 -0.6252
  179PVA    H3730322   5.884   2.239   7.840 -1.6873 -5.4242 -4.1935
  179PVA    H3830323   5.900   2.262   8.012  1.9914 -1.8089  0.5513
  179PVA    C2030324   5.717   2.171   7.958 -0.4868  1.5149  0.4271
  179PVA    H3930325   5.706   2.138   8.062 -1.2325 -2.7753 -0.8238
  179PVA     O730326   5.652   2.072   7.882 -0.1204 -0.0872 -0.0025
  179PVA    H4030327   5.602   2.107   7.806  0.6290  1.4962  0.1950
  179PVA    C2130328   5.626   2.304   7.941 -0.7351 -0.7062 -0.3355
  179PVA    H4130329   5.700   2.385   7.939  0.1026 -0.9149  5.2439
  179PVA    H4230330   5.591   2.310   7.838 -0.4840 -0.3563 -0.4045
  179PVA    C2230331   5.513   2.340   8.050 -0.5035 -0.5159  0.3579
  179PVA    H4330332   5.419   2.285   8.039 -0.8527  0.2356 -0.5831
  179PVA    H4430333   5.559   2.309   0.047  2.7558  0.0434 -0.9163
  179PVA    C2330334   5.495   2.494   8.061 -1.1592  0.7534 -0.0503
  179PVA    H4530335   5.602   2.517   8.058 -0.6334 -1.4796 -0.7954
  179PVA     O830336   5.447   2.537   7.937  0.4207  0.5294 -0.5793
  179PVA    H4630337   5.431   2.633   7.940  4.4638  1.4855 -2.5822
  179PVA    C2430338   5.417   2.555   0.078 -0.3490 -0.7348 -1.5252
  179PVA    H4730339   5.314   2.592   0.061 -0.0299  2.4887  2.1285
  179PVA    H4830340   5.391   2.475   0.148 -1.5748  0.8296 -0.0945
  179PVA    C2530341   5.482   2.661   0.164  0.4594 -2.0609 -1.0453
  179PVA    H4930342   5.462   2.752   0.105 -1.2810 -2.6760 -1.4565
  179PVA    H5030343   5.589   2.641   0.163  0.3928 -2.4980  0.0881
  179PVA    C2630344   5.412   2.668   0.307 -0.1543 -0.1141 -0.3043
  179PVA    H5130345   5.416   2.568   0.353  2.0901 -0.3002 -0.7980
  179PVA     O930346   5.281   2.730   0.283 -0.4947 -0.1669 -0.0466
  179PVA    H5230347   5.226   2.680   0.220 -4.6650  0.3863  2.7311
  179PVA    C2730348   5.486   2.752   0.411 -0.6229 -0.9642  0.6884
  179PVA    H5330349   5.467   2.855   0.378 -1.9104 -0.9046  1.5182
  179PVA    H5430350   5.589   2.715   0.405 -1.5150 -3.6494  0.4518
  179PVA    C2830351   5.416   2.738   0.552  0.9972 -0.6657  0.3706
  179PVA    H5530352   5.357   2.829   0.570  0.1585 -1.2570  0.6980
  179PVA    H5630353   5.342   2.657   0.550 -3.7192  3.1610 -1.3931
  179PVA    C2930354   5.516   2.708   0.681 -0.4199 -0.3875  0.1431
  179PVA    H5730355   5.578   2.627   0.640  0.7533  0.7720 -0.4436
  179PVA    O1030356   5.598   2.821   0.719  1.3348 -0.8071  0.1708
  179PVA    H5830357   5.605   2.875   0.638 -1.3936  0.1034  0.4194
  179PVA    C3030358   5.432   2.666   0.811 -0.7060 -0.0887 -1.2958
  179PVA    H5930359   5.403   2.567   0.773  0.3150 -0.2609 -1.6719
  179PVA    H6030360   5.346   2.727   0.841  0.5970  2.4554 -2.4919
  179PVA    C3130361   5.527   2.644   0.934  0.3064  0.8984  0.7629
  179PVA    H6130362   5.621   2.600   0.900  1.0359  1.0271  2.5005
  179PVA    H6230363   5.563   2.741   0.971  3.1853  0.6441 -1.0524
  179PVA    C3230364   5.458   2.561   1.062 -1.2146 -0.6244 -0.7273
  179PVA    H6330365   5.436   2.460   1.025 -1.2562 -0.8712 -0.0466
  179PVA    O1130366   5.344   2.632   1.115 -0.0058  0.2212  0.7126
  179PVA    H6430367   5.333   2.698   1.044 -1.3292  0.4813  1.1188
  179PVA    C3330368   5.563   2.543   1.173 -0.6096 -0.3386 -0.0101
  179PVA    H6530369   5.628   2.631   1.186  0.2252 -0.9746  0.2466
  179PVA    H6630370   5.630   2.469   1.127  2.4283  2.5864 -0.7435
  179PVA    C3430371   5.504   2.498   1.320  0.4122  0.2800 -1.1494
  179PVA    H6730372   5.460   2.584   1.373  0.4690  0.4049 -1.3008
  179PVA    H6830373   5.419   2.431   1.306  0.3976  0.4056 -1.7146
  179PVA    C3530374   5.595   2.421   1.424  1.1023  0.1032  0.8819
  179PVA    H6930375   5.615   2.320   1.387 -1.9966  0.3558 -1.9486
  179PVA    O1230376   5.714   2.500   1.435 -0.1583  0.2808 -0.4291
  179PVA    H7030377   5.678   2.590   1.429 -0.8984 -0.0196 -0.6956
  179PVA    C3630378   5.520   2.397   1.565  0.5221 -0.4164  0.3722
  179PVA    H7130379   5.588   2.378   1.649  1.1963 -1.8857 -0.4592
  179PVA    H7230380   5.454   2.481   1.591  0.1081 -0.6797  0.1917
  179PVA    C3730381   5.423   2.272   1.567 -1.4194 -0.4360  0.1822
  179PVA    H7330382   5.490   2.189   1.542  0.5383  0.6204  1.6449
  179PVA    H7430383   5.349   2.297   1.490 -1.2780 -1.0482 -0.1595
  179PVA    C3830384   5.353   2.220   1.694 -0.4942 -2.1779 -0.7829
  179PVA    H7530385   5.261   2.280   1.703 -0.7387 -2.8307  2.5585
  179PVA    O1330386   5.432   2.251   1.816 -0.3605 -0.5436  0.5364
  179PVA    H7630387   5.427   2.343   1.849  0.3532 -0.8740  1.6148
  179PVA    C3930388   5.316   2.073   1.697 -0.6126 -0.5004 -0.2832
  179PVA    H7730389   5.396   2.018   1.748 -0.9894 -0.0769  0.7951
  179PVA    H7830390   5.285   2.037   1.598 -3.1430  0.2435  0.1554
  179PVA    C4030391   5.187   2.045   1.780 -0.5891 -0.2331  0.3938
  179PVA    H7930392   5.216   2.062   1.884 -0.2967 -2.4523  0.7335
  179PVA    H8030393   5.101   2.108   1.755  0.5957  1.8698  1.3294
  179PVA    C4130394   5.147   1.890   1.755 -0.4287 -0.3539 -0.7821
  179PVA    H8130395   5.244   1.840   1.742 -1.2786 -3.4190  2.7299
  179PVA    O1430396   5.067   1.879   1.641  0.4319 -0.3782 -0.2965
  179PVA    H8230397   5.087   1.803   1.583 -1.9493  0.3382 -2.2170
  179PVA    C4230398   5.066   1.834   1.873 -0.0118  0.3615 -0.0599
  179PVA    H8330399   5.123   1.845   1.966 -1.3473 -1.5068  1.0443
  179PVA    H8430400   4.978   1.899   1.875  0.0875  0.4900  1.5778
  179PVA    C4330401   5.030   1.677   1.843 -0.7277 -0.7251 -0.0224
  179PVA    H8530402   5.122   1.637   1.799 -3.1855 -3.1462 -3.6049
  179PVA    H8630403   4.961   1.655   1.760 -0.7951  2.6539 -0.9962
  179PVA    C4430404   5.006   1.578   1.962  1.1371  0.3113 -0.3448
  179PVA    H8730405   4.898   1.580   1.981  1.1144 -2.6499  0.2462
  179PVA    O1530406   5.062   1.629   2.076 -0.5557  0.0779 -0.3233
  179PVA    H8830407   4.989   1.666   2.127  0.1538  2.7458 -1.0693
  179PVA    C4530408   5.068   1.430   1.923 -0.3849  1.2269  0.4700
  179PVA    H8930409   5.059   1.416   1.814 -0.5076  2.6095  0.2793
  179PVA    H9030410   5.000   1.352   1.959  1.2850 -2.2038 -3.0544
  179PVA    C4630411   5.199   1.381   2.000  0.2295  0.6551 -0.4761
  179PVA    H9130412   5.261   1.464   2.038 -0.3684  0.9351 -0.0913
  179PVA    H9230413   5.163   1.349   2.099  1.1974  2.2176  0.4273
  179PVA    C4730414   5.274   1.272   1.918  0.0062  0.2866 -0.0593
  179PVA    H9330415   5.205   1.186   1.920 -2.8343  2.4012  1.8074
  179PVA    O1630416   5.295   1.331   1.786 -0.2084  0.7171 -0.3466
  179PVA    H9430417   5.331   1.418   1.812  4.6310 -1.4558  1.3607
  179PVA    C4830418   5.406   1.231   1.991 -0.7700 -1.2358  0.5890
  179PVA    H9530419   5.446   1.314   2.051 -0.3340 -1.5560  0.7385
  179PVA    H9630420   5.403   1.162   2.075  0.1911  3.1067  4.6051
  179PVA    C4930421   5.517   1.178   1.898  0.9074 -0.0992  0.1571
  179PVA    H9730422   5.542   1.259   1.829  0.1283 -0.2457 -0.3080
  179PVA    H9830423   5.478   1.089   1.848  2.7545 -1.1809  0.5440
  179PVA    C5030424   5.650   1.144   1.959 -0.6911 -0.1998 -0.3590
  179PVA    H9930425   5.624   1.084   2.048  0.9688  1.2295  1.1666
  179PVA    O1730426   5.722   1.244   2.028  0.4309 -0.7239 -0.6147
  179PVA   H10030427   5.816   1.227   2.042  0.9673  0.9114 -1.8246
  179PVA    C5130428   5.746   1.080   1.853  0.3639  0.5741 -0.6203
  179PVA   H10130429   5.692   1.062   1.760  0.4671 -0.8791 -0.4193
  179PVA   H10230430   5.824   1.149   1.818  2.3449 -2.0945 -1.8234
  180PVA     C130431   2.299   5.989   5.382 -0.9450  0.3042 -0.8360
  180PVA     H130432   2.369   6.070   5.359 -0.5536  0.0864 -0.4487
  180PVA     H230433   2.198   6.032   5.388 -0.5958  0.9631  0.8224
  180PVA     C230434   2.297   5.893   5.273  0.0280  0.7067  0.8600
  180PVA     H330435   2.352   5.805   5.309  2.8348  0.4533 -3.3593
  180PVA     O130436   2.170   5.840   5.239 -1.0209 -0.5287  0.3077
  180PVA     H430437   2.125   5.893   5.171  5.9363  2.9853 -2.5893
  180PVA     C330438   2.363   5.929   5.139  0.0344  0.4671  0.5627
  180PVA     H530439   2.414   5.841   5.099  3.9898  1.8575  2.0161
  180PVA     H630440   2.451   5.992   5.161  1.1816 -0.6370 -0.6577
  180PVA     C430441   2.275   5.989   5.028  0.2740 -0.1667 -0.3305
  180PVA     H730442   2.179   5.938   5.013 -0.8525  2.4169 -2.9093
  180PVA     H830443   2.243   6.092   5.044 -3.0789 -0.8904 -1.4890
  180PVA     C530444   2.356   6.001   4.895  0.8713 -0.1596  0.0747
  180PVA     H930445   2.411   5.911   4.866  2.7884 -0.4604  3.9216
  180PVA     O230446   2.468   6.105   4.920 -0.3313 -0.1786  0.0007
  180PVA    H1030447   2.550   6.064   4.950 -0.1618 -1.0904 -1.6226
  180PVA     C630448   2.279   6.046   4.772 -0.4555 -0.0804 -0.3593
  180PVA    H1130449   2.184   5.992   4.773 -0.2224 -0.7442  3.7820
  180PVA    H1230450   2.268   6.154   4.791  0.1901  0.6350 -3.4837
  180PVA     C730451   2.346   6.015   4.635 -0.2862  0.8385  0.2043
  180PVA    H1330452   2.319   5.925   4.579  1.9911  0.9098 -1.1062
  180PVA    H1430453   2.453   5.999   4.653 -0.0677  1.7413 -0.2206
  180PVA     C830454   2.356   6.135   4.540  0.9183  1.3267  0.3316
  180PVA    H1530455   2.258   6.179   4.521 -0.8167 -1.3869  2.2865
  180PVA     O330456   2.425   6.221   4.605 -0.1480  0.0772  0.4094
  180PVA    H1630457   2.425   6.194   4.698 -0.7913 -1.2831  0.0406
  180PVA     C930458   2.443   6.098   4.407  0.5787 -0.4239 -0.5851
  180PVA    H1730459   2.403   6.003   4.368  2.5673 -2.4962  2.0678
  180PVA    H1830460   2.533   6.069   4.462 -1.5332  0.5902  3.9724
  180PVA    C1030461   2.447   6.222   4.299 -1.4878  0.2357 -0.0925
  180PVA    H1930462   2.350   6.251   4.255 -1.7988 -2.2130 -1.1503
  180PVA    H2030463   2.503   6.302   4.349  2.2441 -3.0993  1.5316
  180PVA    C1130464   2.524   6.183   4.169  0.3362  0.1768 -0.8193
  180PVA    H2130465   2.627   6.162   4.201 -0.5094 -3.5225 -0.0651
  180PVA     O430466   2.454   6.066   4.121 -0.4873  0.6879  0.3794
  180PVA    H2230467   2.391   6.043   4.191 -1.9658 -1.5428 -1.5599
  180PVA    C1230468   2.529   6.280   4.050  0.1628  0.6417  0.4169
  180PVA    H2330469   2.463   6.245   3.970  2.2507 -4.4803  0.5682
  180PVA    H2430470   2.495   6.379   4.082 -3.4957 -0.4816  0.4783
  180PVA    C1330471   2.664   6.285   3.966  1.3411  1.0270  0.0105
  180PVA    H2530472   2.707   6.186   3.946 -0.4465  0.6082 -2.3010
  180PVA    H2630473   2.732   6.322   4.043 -1.4157 -1.5149  4.0256
  180PVA    C1430474   2.662   6.383   3.844 -1.3512  1.4332  0.3090
  180PVA    H2730475   2.637   6.313   3.762 -0.2334  2.6292 -1.1101
  180PVA     O530476   2.564   6.481   3.853  0.3358 -0.1755  0.4408
  180PVA    H2830477   2.613   6.534   3.918  1.3534 -1.5389  0.8406
  180PVA    C1530478   2.795   6.426   3.787 -0.6575 -0.8293 -0.5558
  180PVA    H2930479   2.854   6.337   3.764 -0.8673 -1.3930  0.9678
  180PVA    H3030480   2.855   6.464   3.871  2.0568  1.6679 -3.3752
  180PVA    C1630481   2.795   6.545   3.676 -0.6289 -0.1931 -0.6169
  180PVA    H3130482   2.702   6.543   3.618  0.5156 -1.4096 -2.5356
  180PVA    H3230483   2.799   6.645   3.721 -2.3817 -1.6508  3.1831
  180PVA    C1730484   2.915   6.510   3.575 -0.3739  0.4457 -0.8233
  180PVA    H3330485   2.912   6.401   3.562  3.3833 -0.1377  1.5614
  180PVA     O630486   3.036   6.546   3.639  0.4584  0.4321  0.0594
  180PVA    H3430487   3.105   6.504   3.584  0.3466 -1.8989  1.5678
  180PVA    C1830488   2.923   6.579   3.441 -1.7298  0.4757  0.0436
  180PVA    H3530489   2.855   6.526   3.373 -0.8318  0.0185 -0.5220
  180PVA    H3630490   2.899   6.687   3.443  0.9783  1.1497  2.9906
  180PVA    C1930491   3.051   6.566   3.354 -0.5284  0.0424 -0.0535
  180PVA    H3730492   3.099   6.469   3.370  1.6557  0.8796 -1.1318
  180PVA    H3830493   3.133   6.626   3.397 -1.6244  0.6916  1.2213
  180PVA    C2030494   3.041   6.599   3.210 -0.0913 -0.0118  0.1171
  180PVA    H3930495   2.995   6.698   3.199 -0.3817 -0.1811 -0.2081
  180PVA     O730496   2.951   6.505   3.155  0.2399 -0.2044 -0.5906
  180PVA    H4030497   2.921   6.439   3.219  2.3942 -4.9878 -3.8999
  180PVA    C2130498   3.165   6.584   3.115 -0.5984 -0.3583  0.8957
  180PVA    H4130499   3.197   6.480   3.108  0.5968  0.0657 -0.2910
  180PVA    H4230500   3.246   6.650   3.147  0.6111 -0.2518 -2.1215
  180PVA    C2230501   3.134   6.637   2.972 -0.0296 -0.4968  0.8671
  180PVA    H4330502   3.086   6.735   2.989 -0.4618 -0.5512  0.0143
  180PVA    H4430503   3.047   6.584   2.930  3.3365 -4.0307 -2.3562
  180PVA    C2330504   3.247   6.658   2.868 -0.3571  0.1419 -0.1509
  180PVA    H4530505   3.258   6.575   2.797  3.4503  2.1221 -2.1990
  180PVA     O830506   3.384   6.665   2.913  0.1562  0.8538  0.0880
  180PVA    H4630507   3.391   6.745   2.967  0.6716 -1.0835  3.1210
  180PVA    C2430508   3.199   6.772   2.778 -0.5006 -0.1106 -1.0997
  180PVA    H4730509   3.103   6.729   2.746 -0.2005 -1.0323 -0.7880
  180PVA    H4830510   3.175   6.870   2.823  0.0415  2.2750 -5.4710
  180PVA    C2530511   3.285   6.803   2.654  0.1320 -0.3877  0.3381
  180PVA    H4930512   3.299   6.717   2.588 -3.0242  0.1748 -1.2481
  180PVA    H5030513   3.388   6.829   2.681 -0.3825  1.2486  0.8646
  180PVA    C2630514   3.229   6.926   2.560 -0.4209  0.5704  2.0632
  180PVA    H5130515   3.284   7.017   2.586  2.0120 -1.3406  4.2695
  180PVA     O930516   3.088   6.934   2.569 -0.5681  0.0294  0.4087
  180PVA    H5230517   3.073   6.979   2.484 -0.4376  1.9032  1.3421
  180PVA    C2730518   3.260   6.912   2.405  1.0093 -0.4700 -0.7589
  180PVA    H5330519   3.255   7.019   2.382 -2.6559 -0.3953 -0.1695
  180PVA    H5430520   3.182   6.860   2.350  0.2323  2.2666 -2.4150
  180PVA    C2830521   3.397   6.877   2.353  0.5019 -0.0245  0.2988
  180PVA    H5530522   3.448   6.867   2.449 -2.9378 -5.6617  2.0383
  180PVA    H5630523   3.389   6.790   2.287 -1.4303  1.7624 -2.0558
  180PVA    C2930524   3.445   6.982   2.253  0.3682  0.1765 -0.6512
  180PVA    H5730525   3.466   7.078   2.301  0.4214 -0.9113  1.6288
  180PVA    O1030526   3.349   6.994   2.153  0.3718  0.6745 -0.0969
  180PVA    H5830527   3.389   7.068   2.103 -1.5098  1.9275  0.1439
  180PVA    C3030528   3.579   6.946   2.186  0.7414 -0.2384  1.3142
  180PVA    H5930529   3.639   6.898   2.264  0.1290 -0.5094  1.6277
  180PVA    H6030530   3.561   6.876   2.103 -1.2504  2.4423 -0.7229
  180PVA    C3130531   3.669   7.066   2.135 -1.3863  0.3078 -0.4708
  180PVA    H6130532   3.693   7.032   2.033  0.1326  1.6702 -0.6082
  180PVA    H6230533   3.613   7.160   2.127  0.6526  1.7112  0.5517
  180PVA    C3230534   3.809   7.088   2.206  0.2897  0.7454 -0.8421
  180PVA    H6330535   3.872   6.999   2.190  1.2402  0.8464  1.8365
  180PVA    O1130536   3.795   7.120   2.345 -0.0108 -0.2783  0.3105
  180PVA    H6430537   3.825   7.031   2.371  0.5786 -1.4454 -3.6735
  180PVA    C3330538   3.885   7.210   2.140  0.8268 -0.7084  0.0854
  180PVA    H6530539   3.819   7.294   2.163  3.7652  1.6927  0.3336
  180PVA    H6630540   3.892   7.209   2.030 -6.3260 -0.3517 -0.8193
  180PVA    C3430541   4.027   7.249   2.213 -1.4662 -0.7450 -0.1558
  180PVA    H6730542   4.006   7.296   2.310  0.4616  0.5626 -0.3149
  180PVA    H6830543   4.077   7.156   2.242 -0.9505 -0.3932  0.1001
  180PVA    C3530544   4.101   7.357   2.133  0.7642 -0.1560  0.8947
  180PVA    H6930545   4.107   7.336   2.025 -3.3810  2.4201 -0.0647
  180PVA    O1230546   4.027   7.471   2.158 -0.3315 -0.8264  0.2514
  180PVA    H7030547   3.996   7.521   2.081 -0.9540 -2.2853 -0.4767
  180PVA    C3630548   4.250   7.371   2.188 -0.4973 -0.0816  0.5947
  180PVA    H7130549   4.252   7.372   2.297 -0.6353  2.3803  0.6248
  180PVA    H7230550   4.295   7.273   2.167 -2.5581 -1.0066  0.2406
  180PVA    C3730551   4.341   7.484   2.150  0.6795 -0.8723  0.1482
  180PVA    H7330552   4.312   7.581   2.192  1.4722 -0.2377 -0.7289
  180PVA    H7430553   4.326   7.500   2.043 -5.0818  2.2032  1.0686
  180PVA    C3830554   4.490   7.475   2.207 -0.6955 -0.4095 -0.9828
  180PVA    H7530555   4.538   7.433   2.118 -0.4387 -3.3605  0.4130
  180PVA    O1330556   4.508   7.377   2.300 -0.2569  0.2220 -0.2868
  180PVA    H7630557   4.534   7.293   2.257 -3.2172 -2.4291  2.5774
  180PVA    C3930558   4.579   7.596   2.250  1.0599 -0.2093  0.2451
  180PVA    H7730559   4.524   7.628   2.340  1.5336 -1.4969  1.0129
  180PVA    H7830560   4.567   7.681   2.181 -0.3113 -1.5233 -1.2127
  180PVA    C4030561   4.725   7.578   2.279 -0.0323 -0.7389 -1.2125
  180PVA    H7930562   4.729   7.510   2.365  0.2435  0.6082 -0.1275
  180PVA    H8030563   4.776   7.531   2.194  1.8506 -1.5387  0.2955
  180PVA    C4130564   4.814   0.020   2.321 -0.0152 -0.3801 -0.7658
  180PVA    H8130565   4.748   0.084   2.381  2.7025  1.5343  0.4118
  180PVA    O1430566   4.912   7.651   2.400  0.4278  0.5376  1.2102
  180PVA    H8230567   4.958   0.026   2.462 -1.4628  3.7567 -0.2643
  180PVA    C4230568   4.863   0.087   2.203  0.0748 -0.6369  0.0260
  180PVA    H8330569   4.958   0.033   2.189 -0.3307 -1.9379  1.9373
  180PVA    H8430570   4.787   0.077   2.124 -0.5015 -1.9717  0.7177
  180PVA    C4330571   4.904   0.230   2.208  0.0964 -0.5085  0.2193
  180PVA    H8530572   4.969   0.245   2.295 -1.6368  0.3242  1.4246
  180PVA    H8630573   4.819   0.297   2.224  0.7148  0.2673  0.3051
  180PVA    C4430574   4.946   0.288   2.072 -0.1362 -0.6961  0.4151
  180PVA    H8730575   4.857   0.279   2.009 -1.9178  2.8822  2.1180
  180PVA    O1530576   5.060   0.228   2.007  0.5159  1.3989  0.4116
  180PVA    H8830577   5.137   0.287   2.007  1.2453  0.5058  2.0012
  180PVA    C4530578   4.968   0.438   2.097 -0.9826 -0.3558  0.1866
  180PVA    H8930579   5.062   0.433   2.153  2.3755 -1.1403 -4.8213
  180PVA    H9030580   4.887   0.491   2.148  1.1995  0.1569  3.4676
  180PVA    C4630581   4.997   0.523   1.967 -0.2469 -0.2264  0.8853
  180PVA    H9130582   5.040   0.463   1.887 -0.6455 -2.3153  2.1615
  180PVA    H9230583   4.896   0.539   1.929  0.2756  2.6187  0.4952
  180PVA    C4730584   5.057   0.667   1.977  0.4266 -0.3087  0.5953
  180PVA    H9330585   5.048   0.714   1.878  1.5869  1.4848  1.2807
  180PVA    O1630586   4.989   0.741   2.075  0.2954 -0.2178 -0.8279
  180PVA    H9430587   4.920   0.795   2.032  0.0395  0.7536  0.7370
  180PVA    C4830588   5.204   0.667   2.003  0.3283  0.1112  0.4010
  180PVA    H9530589   5.267   0.585   1.964 -2.3966 -3.5405  2.9214
  180PVA    H9630590   5.198   0.647   2.111 -3.7601  1.2509  0.5499
  180PVA    C4930591   5.269   0.793   2.003 -0.0876  0.0552 -1.0413
  180PVA    H9730592   5.214   0.872   2.055 -2.9201 -2.5902  0.3375
  180PVA    H9830593   5.267   0.816   1.896 -2.2672  1.6674 -0.7357
  180PVA    C5030594   5.423   0.783   2.041  0.3937 -0.3263 -0.4573
  180PVA    H9930595   5.448   0.708   2.117  0.2750 -2.0366 -2.0342
  180PVA    O1730596   5.449   0.917   2.083  0.5806  0.3002 -1.1343
  180PVA   H10030597   5.382   0.958   2.141  0.7560 -0.5434 -0.3280
  180PVA    C5130598   5.505   0.751   1.918  0.2115  0.7397 -0.3950
  180PVA   H10130599   5.475   0.813   1.833 -1.7759 -0.5550 -0.6988
  180PVA   H10230600   5.472   0.650   1.891 -1.2794  1.1448 -0.1563
  181PVA     C130601   2.458   6.005   5.900  0.0388 -0.1984 -1.2591
  181PVA     H130602   2.552   6.060   5.912  0.5376 -0.9274 -1.7666
  181PVA     H230603   2.473   5.909   5.953 -2.3289  0.3302  0.5872
  181PVA     C230604   2.333   6.085   5.987 -0.2091 -0.0829 -0.3709
  181PVA     H330605   2.261   6.008   6.019  0.3530 -0.4794 -0.0280
  181PVA     O130606   2.260   6.173   5.910 -1.6493  0.0523  0.4678
  181PVA     H430607   2.230   6.234   5.980 -0.5393  1.3550 -0.1564
  181PVA     C330608   2.385   6.158   6.115 -0.0592  0.1175  0.7745
  181PVA     H530609   2.392   6.264   6.091  1.4498  0.1524  1.2610
  181PVA     H630610   2.489   6.132   6.138 -0.3923 -0.3112  1.9097
  181PVA     C430611   2.303   6.163   6.251  0.5359 -0.0063 -1.0132
  181PVA     H730612   2.198   6.173   6.220  1.0349 -0.6741 -3.1147
  181PVA     H830613   2.305   6.063   6.297 -2.8724  0.7203  1.1248
  181PVA     C530614   2.333   6.271   6.358 -0.8251 -0.1627 -1.0406
  181PVA     H930615   2.265   6.353   6.332  0.3636  0.9063 -0.8846
  181PVA     O230616   2.470   6.309   6.369 -0.1351  0.2118 -0.1893
  181PVA    H1030617   2.510   6.299   6.281 -0.0979  0.6883 -0.2247
  181PVA     C630618   2.303   6.233   6.515  0.4565  0.5839 -0.0707
  181PVA    H1130619   2.207   6.179   6.513  1.4725 -1.3541  0.6428
  181PVA    H1230620   2.378   6.154   6.532  1.2367  0.6553 -2.7168
  181PVA     C730621   2.289   6.348   6.631 -0.2308  1.6019 -0.3488
  181PVA    H1330622   2.394   6.371   6.651 -0.3249 -0.5332  4.0592
  181PVA    H1430623   2.229   6.434   6.600 -0.7661  1.8401  1.2297
  181PVA     C830624   2.247   6.280   6.772  0.3357  0.4686 -0.0845
  181PVA    H1530625   2.326   6.206   6.791 -0.1341 -0.1016 -0.3379
  181PVA     O330626   2.117   6.221   6.756 -0.0592  0.0872  0.8121
  181PVA    H1630627   2.135   6.140   6.705 -0.4972  1.9123 -2.5109
  181PVA     C930628   2.237   6.388   6.886 -0.8092 -0.4645  0.2305
  181PVA    H1730629   2.152   6.455   6.874 -0.0815  0.8117  1.8100
  181PVA    H1830630   2.318   6.461   6.893 -1.3925  0.0449  3.4039
  181PVA    C1030631   2.221   6.344   7.040 -0.7927  0.3622  0.1241
  181PVA    H1930632   2.128   6.286   7.046 -2.7734  3.1801 -1.0515
  181PVA    H2030633   2.303   6.273   7.057 -1.6480 -0.5182  0.5990
  181PVA    C1130634   2.241   6.455   7.144 -0.4304  0.9536 -0.3142
  181PVA    H2130635   2.316   6.530   7.116 -0.1402  1.5658  1.9230
  181PVA     O430636   2.111   6.508   7.147  1.2524 -0.2486 -0.3349
  181PVA    H2230637   2.075   6.526   7.058 -5.5133 -4.7078  0.7748
  181PVA    C1230638   2.275   6.417   7.298 -1.4055 -0.9082 -0.2480
  181PVA    H2330639   2.357   6.344   7.294 -2.5283 -2.3885  1.6282
  181PVA    H2430640   2.189   6.356   7.331  0.5917 -2.5744  2.3138
  181PVA    C1330641   2.286   6.531   7.408  0.0375  0.6825  0.7574
  181PVA    H2530642   2.375   6.588   7.377 -0.9704  2.6267  1.2271
  181PVA    H2630643   2.208   6.608   7.401 -1.6399 -0.8147  2.0211
  181PVA    C1430644   2.304   6.495   7.567  0.3169 -0.1865  0.4358
  181PVA    H2730645   2.212   6.456   7.612 -0.3768 -2.1949 -2.3879
  181PVA     O530646   2.389   6.380   7.561 -0.3983  0.3519  0.0335
  181PVA    H2830647   2.435   6.377   7.475 -0.2916 -2.4061  0.1116
  181PVA    C1530648   2.373   6.610   7.654  0.1180 -0.7113  0.5270
  181PVA    H2930649   2.317   6.704   7.650  3.2640  1.2760 -2.0520
  181PVA    H3030650   2.447   6.650   7.583 -0.6284  3.0009  1.6342
  181PVA    C1630651   2.424   6.580   7.800 -1.0537  0.8377 -0.7171
  181PVA    H3130652   2.513   6.515   7.800 -0.5575  1.4321  1.3768
  181PVA    H3230653   2.358   6.509   7.851  2.2904 -2.1818 -0.1148
  181PVA    C1730654   2.469   6.701   7.895  0.1299 -0.6706 -0.7405
  181PVA    H3330655   2.379   6.764   7.901 -0.0946 -1.1163  1.3834
  181PVA     O630656   2.588   6.759   7.836 -0.8987 -0.1131  0.2098
  181PVA    H3430657   2.569   6.847   7.800 -2.5987 -1.3292 -2.0784
  181PVA    C1830658   2.494   6.678   8.052  1.1344  0.2773  0.0875
  181PVA    H3530659   2.415   6.609   8.084  1.9895 -1.8417 -2.0483
  181PVA    H3630660   2.587   6.623   8.071  1.1998  0.4911  0.3891
  181PVA    C1930661   2.494   6.813   0.052 -1.6435  0.2173  0.6341
  181PVA    H3730662   2.397   6.864   0.043 -2.1825 -1.1489 -2.8000
  181PVA    H3830663   2.544   6.904   0.018 -0.8314  1.7390  5.2846
  181PVA    C2030664   2.538   6.803   0.215  0.2212 -0.2994 -0.0645
  181PVA    H3930665   2.645   6.783   0.224  1.1467  2.6584 -2.6708
  181PVA     O730666   2.483   6.694   0.279 -0.2573  0.0387 -0.0377
  181PVA    H4030667   2.548   6.639   0.326 -0.0681 -1.0563 -1.5128
  181PVA    C2130668   2.521   6.943   0.312 -0.0761 -0.1261  0.1820
  181PVA    H4130669   2.462   7.017   0.257 -2.7996 -2.4488 -0.2748
  181PVA    H4230670   2.624   6.980   0.324 -0.0970 -0.2810  0.8725
  181PVA    C2230671   2.465   6.921   0.459 -0.6728 -0.1739  1.0790
  181PVA    H4330672   2.488   6.821   0.498  2.4530 -1.2064 -2.7383
  181PVA    H4430673   2.357   6.910   0.451 -0.8028  1.8510 -0.8813
  181PVA    C2330674   2.471   7.037   0.576  0.1092  0.2665 -0.7461
  181PVA    H4530675   2.408   7.120   0.541 -1.4722  0.5668  2.4817
  181PVA     O830676   2.603   7.097   0.573  0.3893  0.4022  0.0724
  181PVA    H4630677   2.646   7.025   0.622 -1.0416 -1.3938 -1.1893
  181PVA    C2430678   2.439   7.048   0.730 -0.4060 -0.3420  0.0575
  181PVA    H4730679   2.454   6.951   0.780 -0.1346  0.5541  1.7512
  181PVA    H4830680   2.508   7.115   0.783 -2.2321  1.0300  0.7894
  181PVA    C2530681   2.297   7.074   0.808 -0.6554 -0.1637  0.3931
  181PVA    H4930682   2.212   7.040   0.747  3.2406 -1.5916 -4.9117
  181PVA    H5030683   2.276   7.174   0.769 -1.6462 -0.3091  0.5245
  181PVA    C2630684   2.289   7.086   0.967  1.0626  0.6677  0.0279
  181PVA    H5130685   2.373   7.155   0.986  0.6926  0.7909  1.3180
  181PVA     O930686   2.342   6.961   1.020  0.7002  0.4477 -0.6894
  181PVA    H5230687   2.344   6.888   0.956  0.1449  2.0600 -2.6454
  181PVA    C2730688   2.140   7.119   1.037 -0.2887  0.7101  0.0404
  181PVA    H5330689   2.093   7.169   0.952  0.2422 -0.4848 -0.9882
  181PVA    H5430690   2.076   7.030   1.046  2.2545 -2.0826 -5.1192
  181PVA    C2830691   2.137   7.236   1.150 -0.7517 -0.5872 -0.3412
  181PVA    H5530692   2.241   7.257   1.181 -0.6587 -0.3934 -0.7857
  181PVA    H5630693   2.114   7.331   1.101  0.7950  1.1168  2.0002
  181PVA    C2930694   2.058   7.214   1.281 -0.4531 -0.6034 -0.3648
  181PVA    H5730695   2.076   7.126   1.343 -3.1447 -1.8169 -1.1681
  181PVA    O1030696   1.918   7.200   1.247  0.4547  0.3943  0.1347
  181PVA    H5830697   1.889   7.150   1.325  3.9344 -0.3069  1.1419
  181PVA    C3030698   2.067   7.330   1.389  0.1679  0.7594 -0.2838
  181PVA    H5930699   2.174   7.353   1.397 -0.0365  2.8776 -2.3490
  181PVA    H6030700   2.027   7.421   1.342  5.3503  0.2728 -7.3951
  181PVA    C3130701   2.023   7.300   1.544 -1.3477 -0.6487  0.0795
  181PVA    H6130702   2.085   7.215   1.576  0.1608  0.8025  1.2074
  181PVA    H6230703   1.923   7.256   1.541 -1.7117  0.2007 -0.4336
  181PVA    C3230704   2.037   7.415   1.660  0.6970 -0.2151  0.7443
  181PVA    H6330705   2.139   7.401   1.700 -0.8371 -0.5825  5.1250
  181PVA    O1130706   2.042   7.551   1.605 -0.6175 -0.4051 -0.5393
  181PVA    H6430707   2.064   7.607   1.682  1.3359 -0.2883 -1.1089
  181PVA    C3330708   1.952   7.413   1.806  1.3119  0.2387 -0.0762
  181PVA    H6530709   2.009   7.354   1.879 -0.5405 -1.8637 -0.2257
  181PVA    H6630710   1.854   7.365   1.797  1.0763  1.1067 -4.3234
  181PVA    C3430711   1.930   7.544   1.901  0.5429 -1.0571 -0.3598
  181PVA    H6730712   2.029   7.589   1.917  0.7151 -1.8178  0.7600
  181PVA    H6830713   1.873   7.624   1.852  2.3896 -0.5754 -1.8557
  181PVA    C3530714   1.882   7.530   2.066 -0.1213  0.8907  0.8228
  181PVA    H6930715   1.971   7.512   2.127 -0.2277  0.8432  0.9639
  181PVA    O1230716   1.806   7.412   2.078  0.2560 -0.2889  0.2602
  181PVA    H7030717   1.873   7.345   2.103 -2.3980 -2.7035  1.4112
  181PVA    C3630718   1.801   7.649   2.142  1.0145  0.7621 -0.8945
  181PVA    H7130719   1.828   0.059   2.092  4.3849  0.3632 -0.0575
  181PVA    H7230720   1.697   7.637   2.108  1.7156  0.4724 -3.1109
  181PVA    C3730721   1.791   7.672   2.302 -0.6372  0.2020 -0.1024
  181PVA    H7330722   1.893   7.656   2.337 -0.2663  0.3937 -1.0551
  181PVA    H7430723   1.730   7.594   2.350 -3.0510  1.8687 -0.2759
  181PVA    C3830724   1.768   0.124   2.403 -0.0911  0.2898 -0.0305
  181PVA    H7530725   1.874   0.149   2.414 -0.3476  0.4357  2.7905
  181PVA    O1330726   1.721   0.227   2.327 -0.2367 -0.3410 -0.7252
  181PVA    H7630727   1.628   0.213   2.304 -0.2313 -1.0816 -0.3226
  181PVA    C3930728   1.693   0.140   2.556  0.2311  0.2940  0.2683
  181PVA    H7730729   1.607   0.079   2.586 -2.1200  2.1688 -2.1690
  181PVA    H7830730   1.621   0.217   2.526 -4.3879 -3.3710  0.7915
  181PVA    C4030731   1.760   0.181   2.698  0.1424 -0.8937 -0.1146
  181PVA    H7930732   1.762   0.081   2.744  1.2101 -1.7415 -1.9049
  181PVA    H8030733   1.864   0.214   2.685  0.0031 -0.4210 -0.0376
  181PVA    C4130734   1.689   0.262   2.815 -0.6404 -1.1778 -0.0067
  181PVA    H8130735   1.582   0.248   2.799 -1.2114  2.5263 -0.3688
  181PVA    O1430736   1.724   0.402   2.805  0.3854  0.2986 -0.5561
  181PVA    H8230737   1.813   0.419   2.770 -1.2931  4.1952 -3.6927
  181PVA    C4230738   1.691   0.224   2.981 -0.5496  0.1238 -0.0460
  181PVA    H8330739   1.608   0.157   3.008 -1.1831 -0.8435 -3.8465
  181PVA    H8430740   1.794   0.189   2.992 -0.6324 -1.9426 -3.9109
  181PVA    C4330741   1.687   0.325   3.097 -0.1647  0.7069  0.3694
  181PVA    H8530742   1.636   0.414   3.058  2.0315  2.2917  0.9072
  181PVA    H8630743   1.784   0.374   3.109 -0.4993  1.3994  0.3042
  181PVA    C4430744   1.626   0.283   3.246  0.4110 -0.6700  1.4330
  181PVA    H8730745   1.518   0.268   3.237  0.0126  1.6860  1.6105
  181PVA    O1530746   1.698   0.171   3.280  0.3590 -0.3009  0.8723
  181PVA    H8830747   1.794   0.183   3.288  0.7888  0.8454 -3.4022
  181PVA    C4530748   1.660   0.385   3.365  0.2577  0.0649 -0.1643
  181PVA    H8930749   1.606   0.478   3.340  0.0768  1.4134  4.3040
  181PVA    H9030750   1.769   0.394   3.381  0.2744  0.3823 -0.4372
  181PVA    C4630751   1.592   0.336   3.506 -1.1875 -0.1006 -1.0899
  181PVA    H9130752   1.482   0.333   3.499 -1.5994  2.0640  1.9201
  181PVA    H9230753   1.627   0.233   3.509 -2.1189 -0.4401 -1.5979
  181PVA    C4730754   1.612   0.393   3.651 -0.4192  0.1638 -1.0271
  181PVA    H9330755   1.708   0.360   3.691 -1.4883  0.3065  1.8658
  181PVA    O1630756   1.621   0.532   3.637  0.9240 -0.5777 -0.0554
  181PVA    H9430757   1.595   0.564   3.549 -0.2262 -1.3697 -0.0240
  181PVA    C4830758   1.516   0.342   3.769  0.2081  0.0348  0.0898
  181PVA    H9530759   1.421   0.329   3.716  1.3876 -1.6020 -1.7361
  181PVA    H9630760   1.557   0.245   3.799 -3.8910 -1.0360  3.0767
  181PVA    C4930761   1.477   0.413   3.909 -0.2555 -0.4810 -0.9297
  181PVA    H9730762   1.392   0.482   3.893 -0.0155  0.5819  1.7917
  181PVA    H9830763   1.556   0.470   3.958 -1.9591 -2.0662  4.3562
  181PVA    C5030764   1.435   0.340   4.036 -0.2672 -0.8797  0.6166
  181PVA    H9930765   1.520   0.273   4.056  0.1338 -1.0635 -1.5238
  181PVA    O1730766   1.325   0.269   3.980  0.1306  0.4829 -0.3154
  181PVA   H10030767   1.380   0.201   3.938  0.9525  0.9562 -0.0337
  181PVA    C5130768   1.407   0.426   4.177  0.3924 -0.1834  0.2580
  181PVA   H10130769   1.395   0.534   4.160  1.4229  0.2631  2.1531
  181PVA   H10230770   1.501   0.424   4.234  0.5142 -0.0652  0.0642
  182PVA     C130771   6.297   0.529   1.029 -0.1459  0.3099  0.3446
  182PVA     H130772   6.283   0.633   1.059 -1.9645  0.0337  0.5588
  182PVA     H230773   6.402   0.499   1.019 -0.4241 -1.8706  2.7668
  182PVA     C230774   6.270   0.576   0.874 -0.2733  0.2244 -0.0555
  182PVA     H330775   6.191   0.651   0.889  0.1744  0.1376  3.5905
  182PVA     O130776   6.205   0.469   0.811 -0.7290 -0.6617 -0.7348
  182PVA     H430777   6.181   0.487   0.718 -4.1518 -3.4622 -0.5871
  182PVA     C330778   6.383   0.636   0.784  0.6169 -0.5955 -0.8085
  182PVA     H530779   6.441   0.553   0.743  0.7660 -1.7618  1.6402
  182PVA     H630780   6.452   0.686   0.852 -1.0829  2.2006 -0.9558
  182PVA     C430781   6.340   0.747   0.669 -0.2698 -0.3160  1.7575
  182PVA     H730782   6.358   0.695   0.574  1.7590 -0.9669  2.4417
  182PVA     H830783   6.231   0.752   0.671 -0.6071 -4.0222  0.0744
  182PVA     C530784   6.438   0.883   0.637 -0.1878 -0.0391  0.9550
  182PVA     H930785   6.529   0.853   0.584  0.2005  1.8972  0.4477
  182PVA     O230786   6.489   0.947   0.752 -0.1605  0.0901 -0.1849
  182PVA    H1030787   6.417   0.909   0.805  1.0716 -0.5116  1.1385
  182PVA     C630788   6.381   1.005   0.553  0.3262  0.3788 -0.7347
  182PVA    H1130789   6.307   1.066   0.606  1.7643 -0.1375  2.0570
  182PVA    H1230790   6.347   0.962   0.458  0.5545 -1.8992  0.1580
  182PVA     C730791   6.493   1.113   0.516  1.0686 -0.7376 -0.1285
  182PVA    H1330792   6.588   1.073   0.478  0.3494 -1.7078 -0.9664
  182PVA    H1430793   6.544   1.166   0.598  1.5923  0.0577 -0.9429
  182PVA     C830794   6.451   1.225   0.417  0.1521  0.7203  0.1682
  182PVA    H1530795   6.361   1.267   0.463 -1.9650  1.3331 -4.0233
  182PVA     O330796   6.410   1.160   0.298 -1.2380 -0.6715  0.2307
  182PVA    H1630797   6.385   1.231   0.236 -4.1448 -3.0280 -1.5597
  182PVA     C930798   6.547   1.343   0.382 -0.9934 -0.4684  0.7423
  182PVA    H1730799   6.645   1.301   0.409 -2.5675 -3.4873  2.2790
  182PVA    H1830800   6.534   1.430   0.447  4.6125  0.2789  1.3852
  182PVA    C1030801   6.559   1.400   0.237  0.0568  0.0204 -0.6667
  182PVA    H1930802   6.463   1.449   0.213 -0.6402 -1.1763 -0.3902
  182PVA    H2030803   6.569   1.331   0.152 -1.3037 -0.4293 -0.4882
  182PVA    C1130804   6.668   1.523   0.223 -0.4983  1.0660 -0.2118
  182PVA    H2130805   6.749   1.486   0.287  1.1899  1.1051 -2.2122
  182PVA     O430806   6.618   1.632   0.291 -0.0405 -0.0557 -0.0612
  182PVA    H2230807   6.527   1.651   0.261  0.1574 -1.3164 -1.5969
  182PVA    C1230808   6.735   1.541   0.076  0.2536  0.1313  0.5672
  182PVA    H2330809   6.679   1.613   0.015 -3.6426 -2.1875  0.9908
  182PVA    H2430810   6.724   1.449   0.016 -2.2353  1.4686 -1.2139
  182PVA    C1330811   6.884   1.593   0.104 -0.0352 -0.1452  0.3856
  182PVA    H2530812   6.880   1.694   0.146 -2.2223 -0.4655  1.0685
  182PVA    H2630813   6.920   1.517   0.175  0.4619  0.8008  1.1578
  182PVA    C1430814   6.992   1.613   8.089 -0.2732  1.4518 -0.2018
  182PVA    H2730815   6.978   1.707   8.034 -1.8365  2.0034  1.0668
  182PVA     O530816   6.965   1.503   8.000 -0.1923  0.2874  0.4166
  182PVA    H2830817   6.904   1.535   7.930 -1.5072 -3.0369 -0.1680
  182PVA    C1530818   7.151   1.619   0.020  0.5878  0.3793 -0.1743
  182PVA    H2930819   7.166   1.588   0.124  2.7851 -0.2569 -0.6131
  182PVA    H3030820   7.186   1.721   0.004 -2.4719  1.4779 -0.4270
  182PVA    C1630821   7.241   1.515   8.030  0.8121 -1.7311 -0.1669
  182PVA    H3130822   7.205   1.514   7.927 -1.4936 -1.1406  0.5610
  182PVA    H3230823   7.230   1.412   8.066  0.0245 -1.9101 -0.8904
  182PVA    C1730824   7.394   1.544   8.018 -0.6549  0.5650 -0.1737
  182PVA    H3330825   7.398   1.648   7.984  2.5871  0.3814 -0.6467
  182PVA     O630826   7.464   1.573   0.048  0.4140  0.2553  1.1505
  182PVA    H3430827   7.428   1.513   0.117 -1.5189  2.1933  1.9485
  182PVA    C1830828   7.484   1.461   7.910 -0.1282  0.3881 -0.8128
  182PVA    H3530829   7.439   1.362   7.919  0.8045  0.0047 -0.2683
  182PVA    H3630830   7.471   1.494   7.806 -1.5213 -2.9342 -1.8132
  182PVA    C1930831   7.640   1.440   7.931 -0.0104  0.7059  0.7358
  182PVA    H3730832   7.683   1.432   7.831 -1.9080 -3.9159  0.0176
  182PVA    H3830833   7.666   1.536   7.977  1.4426  2.4031 -3.2480
  182PVA    C2030834   7.684   1.317   8.016 -0.0122  0.9608 -0.4374
  182PVA    H3930835   7.597   1.259   8.049  0.6204  0.7130  0.8713
  182PVA     O730836   7.753   1.358   0.041 -0.3594 -0.4611 -0.7386
  182PVA    H4030837   7.679   1.391   0.095 -0.8771 -0.6783 -1.2961
  182PVA    C2130838   0.016   1.215   7.952  0.2420  0.1464  1.7878
  182PVA    H4130839   7.758   1.210   7.845  0.5948  1.5078  1.6288
  182PVA    H4230840   0.121   1.246   7.951 -0.0669  1.4945 -1.9888
  182PVA    C2230841   7.757   1.066   7.987  0.0314  0.8418 -0.6038
  182PVA    H4330842   7.659   1.035   7.950 -1.1662  2.6477  0.8937
  182PVA    H4430843   7.741   1.071   8.096 -4.9204 -5.1346 -0.4760
  182PVA    C2330844   0.098   0.974   7.937 -0.2317  0.7660  0.7362
  182PVA    H4530845   0.171   1.037   7.885  0.5928  2.5583  3.8430
  182PVA     O830846   0.168   0.924   8.044  0.1208  0.8054  0.3005
  182PVA    H4630847   0.257   0.890   8.026  0.3263  0.4519  1.8377
  182PVA    C2430848   0.045   0.845   7.855 -0.1417 -0.2169  0.4136
  182PVA    H4730849   7.728   0.870   7.787  0.2665  1.6507  0.5735
  182PVA    H4830850   7.746   0.787   7.923 -2.8617 -2.9699 -3.9913
  182PVA    C2530851   0.155   0.753   7.771  0.8618 -1.0352 -0.3762
  182PVA    H4930852   0.223   0.716   7.849 -0.6179 -3.1102  0.0270
  182PVA    H5030853   0.205   0.819   7.699  0.5569  0.1139  0.4427
  182PVA    C2630854   0.112   0.625   7.697  0.1415 -0.1914  0.4069
  182PVA    H5130855   0.005   0.643   7.678  1.0341  4.3203 -1.4931
  182PVA     O930856   0.125   0.510   7.793  0.2656  0.3103 -0.1370
  182PVA    H5230857   0.158   0.428   7.752  3.8116  0.8161  1.3767
  182PVA    C2730858   0.179   0.592   7.556  0.7350  0.2923  0.6291
  182PVA    H5330859   0.238   0.676   7.517 -0.0222  1.0900  1.1739
  182PVA    H5430860   0.242   0.504   7.570 -1.6543 -1.7663 -0.7775
  182PVA    C2830861   0.088   0.560   7.431 -0.5769  0.2953  0.9667
  182PVA    H5530862   0.006   0.632   7.420 -1.9381 -1.5088 -1.4406
  182PVA    H5630863   0.049   0.459   7.449  2.3059 -1.1812 -0.3786
  182PVA    C2930864   0.150   0.560   7.285 -0.4526 -0.1708  0.2447
  182PVA    H5730865   0.192   0.652   7.242  1.0632 -1.8949 -2.2905
  182PVA    O1030866   0.259   0.471   7.279  0.3984 -0.3414  0.2016
  182PVA    H5830867   0.219   0.401   7.224 -2.2373  1.9523 -1.0233
  182PVA    C3030868   0.050   0.514   7.166 -0.4175 -0.7868 -0.3832
  182PVA    H5930869   0.018   0.409   7.179 -4.4108  0.4035  0.7446
  182PVA    H6030870   7.722   0.569   7.179 -3.4435 -4.0767 -5.0328
  182PVA    C3130871   0.109   0.542   7.027 -0.0621  0.1326 -0.1717
  182PVA    H6130872   0.190   0.469   7.011  0.6118  0.6925  0.6008
  182PVA    H6230873   0.165   0.636   7.038  0.5104 -0.5191  4.2670
  182PVA    C3230874   7.756   0.544   6.909  0.2810  0.0464 -0.8351
  182PVA    H6330875   7.687   0.465   6.938 -0.8288  1.1523 -0.3567
  182PVA    O1130876   7.682   0.666   6.909  0.0471 -0.5929 -1.4284
  182PVA    H6430877   7.588   0.643   6.925 -0.8437  2.0335 -2.3524
  182PVA    C3330878   0.017   0.489   6.768 -0.5404  0.3878  0.5439
  182PVA    H6530879   7.703   0.421   6.737  0.0804 -0.4711  0.8071
  182PVA    H6630880   0.091   0.413   6.796 -1.9782  0.4931  5.5684
  182PVA    C3430881   0.057   0.563   6.632 -0.2946 -0.0378 -0.3531
  182PVA    H6730882   7.725   0.603   6.603 -0.2014 -1.9737 -3.8615
  182PVA    H6830883   0.132   0.641   6.651  0.2542 -0.9369  1.4365
  182PVA    C3530884   0.122   0.499   6.506 -0.3002 -0.5878 -0.6617
  182PVA    H6930885   0.184   0.422   6.555 -0.7253 -0.4117  0.1777
  182PVA    O1230886   0.017   0.455   6.433  1.1819 -0.4669 -0.4193
  182PVA    H7030887   7.738   0.384   6.482 -6.5579  2.9094 -1.1589
  182PVA    C3630888   0.234   0.553   6.405 -0.1755  0.9541  0.0850
  182PVA    H7130889   0.310   0.594   6.472 -1.9181 -4.4290  6.4211
  182PVA    H7230890   0.191   0.641   6.356 -2.1509  0.8619  1.5690
  182PVA    C3730891   0.293   0.477   6.272  1.1714 -0.4106 -0.7123
  182PVA    H7330892   0.218   0.468   6.193 -0.3180 -0.3938  0.6532
  182PVA    H7430893   0.323   0.373   6.292 -0.2245 -0.5611  0.8355
  182PVA    C3830894   0.411   0.536   6.203 -0.7583 -0.6598 -0.0303
  182PVA    H7530895   0.386   0.642   6.214 -3.4828 -1.4431  2.9579
  182PVA    O1330896   0.527   0.509   6.276 -0.4344 -0.8766  0.3589
  182PVA    H7630897   0.600   0.572   6.263 -1.5589  0.6151  0.9167
  182PVA    C3930898   0.450   0.474   6.063  0.0762 -0.4680  0.0168
  182PVA    H7730899   0.357   0.491   6.008 -0.4577 -1.6302  0.5295
  182PVA    H7830900   0.438   0.365   6.071 -3.8017 -0.0390  3.4796
  182PVA    C4030901   0.569   0.527   5.981  0.4595 -0.4829  0.2898
  182PVA    H7930902   0.562   0.636   5.985  2.2515 -0.3689  1.3728
  182PVA    H8030903   0.659   0.497   6.035  0.6689 -3.4012 -1.4284
  182PVA    C4130904   0.567   0.491   5.828  0.2112  0.2114 -0.6239
  182PVA    H8130905   0.588   0.384   5.818  0.5421 -0.1460  2.7925
  182PVA    O1430906   0.445   0.535   5.779  0.5074  0.3778 -0.0417
  182PVA    H8230907   0.369   0.496   5.826 -5.1505  2.4330 -5.8612
  182PVA    C4230908   0.677   0.559   5.745 -0.0161 -0.4072  0.9355
  182PVA    H8330909   0.674   0.666   5.765  2.7462 -0.3884  1.5999
  182PVA    H8430910   0.771   0.532   5.794 -1.7894 -1.1662  4.1718
  182PVA    C4330911   0.662   0.529   5.590 -0.2531 -1.2152  0.5040
  182PVA    H8530912   0.568   0.576   5.557 -1.0096 -2.5478  0.6816
  182PVA    H8630913   0.613   0.431   5.579 -0.3715 -0.9528 -2.0649
  182PVA    C4430914   0.778   0.551   5.490  0.7448  0.5960  0.2467
  182PVA    H8730915   0.850   0.470   5.510 -1.8357 -2.3979 -1.5889
  182PVA    O1530916   0.831   0.674   5.530 -0.3607 -0.3435 -0.3931
  182PVA    H8830917   0.861   0.715   5.447 -2.4889  2.1433 -0.0808
  182PVA    C4530918   0.758   0.527   5.334  0.7724  0.7117 -0.2101
  182PVA    H8930919   0.679   0.580   5.280  0.2619 -0.6680 -0.8694
  182PVA    H9030920   0.716   0.426   5.339 -1.0679  1.2677 -2.4759
  182PVA    C4630921   0.892   0.544   5.248 -0.2695 -0.3542  0.6053
  182PVA    H9130922   0.928   0.643   5.277 -1.3969  0.0936  0.5090
  182PVA    H9230923   0.969   0.473   5.281 -0.1564 -1.5850 -2.0194
  182PVA    C4730924   0.892   0.509   5.091  0.5481  0.5159 -0.7750
  182PVA    H9330925   0.874   0.401   5.079  0.0429  0.5259 -0.1576
  182PVA    O1630926   0.787   0.584   5.029 -0.2374 -0.4618  0.3675
  182PVA    H9430927   0.779   0.569   4.934  2.2932 -1.7870  0.2752
  182PVA    C4830928   1.028   0.545   5.009  0.6244  0.3435  0.6003
  182PVA    H9530929   1.021   0.651   4.985 -1.3860  0.4016  1.2758
  182PVA    H9630930   1.109   0.526   5.082  2.2970 -2.6663 -1.8127
  182PVA    C4930931   1.086   0.470   4.884 -0.4312  0.2492 -0.8062
  182PVA    H9730932   1.018   0.474   4.798 -0.9088 -0.6379 -0.4781
  182PVA    H9830933   1.103   0.366   4.913 -2.4448  0.6016  1.9624
  182PVA    C5030934   1.231   0.510   4.829  0.1609 -0.1773 -0.0544
  182PVA    H9930935   1.313   0.490   4.900  1.7744 -0.9693 -2.0588
  182PVA    O1730936   1.210   0.648   4.812 -0.0454 -0.7559  0.6916
  182PVA   H10030937   1.141   0.678   4.875  0.7520  2.5782  0.2052
  182PVA    C5130938   1.271   0.419   4.699  0.7476 -1.7752  0.3474
  182PVA   H10130939   1.379   0.422   4.715  1.5009 -3.5321 -3.4655
  182PVA   H10230940   1.253   0.312   4.714  3.3239 -2.5584 -1.4134
  183PVA     C130941   6.397   0.201   1.377  0.0318  1.2247 -0.4582
  183PVA     H130942   6.349   0.185   1.474  2.4655  0.2543  0.6592
  183PVA     H230943   6.374   0.116   1.311 -1.3319  2.3621 -1.5291
  183PVA     C230944   6.555   0.221   1.387  0.0611  0.5778  0.7741
  183PVA     H330945   6.598   0.190   1.291 -0.4839 -1.0554  1.0227
  183PVA     O130946   6.592   0.349   1.416 -0.5322 -0.7896  0.1189
  183PVA     H430947   6.534   0.357   1.494 -3.2866 -0.9954 -1.7666
  183PVA     C330948   6.637   0.134   1.489 -0.4876  0.4812 -0.7752
  183PVA     H530949   6.585   0.038   1.482  3.2517 -2.0749  2.3352
  183PVA     H630950   6.593   0.190   1.573  2.8519  1.6228  0.3950
  183PVA     C430951   6.790   0.131   1.457  0.5177 -0.8501  0.5990
  183PVA     H730952   6.826   0.099   1.358 -1.2341 -4.4239  0.9558
  183PVA     H830953   6.821   0.236   1.467  0.8325 -0.8570 -0.2038
  183PVA     C530954   6.893   0.049   1.542 -0.1626 -0.2008 -0.6356
  183PVA     H930955   6.868   7.630   1.515  1.3563 -0.5735 -0.7222
  183PVA     O230956   6.854   0.070   1.681  0.3231 -0.1651 -0.0720
  183PVA    H1030957   6.801   0.152   1.683 -0.5713 -0.7229 -0.4025
  183PVA     C630958   7.041   0.077   1.513 -0.7807  0.3458 -0.4456
  183PVA    H1130959   7.053   0.056   1.406 -0.1477 -0.6189 -0.1999
  183PVA    H1230960   7.055   0.185   1.525  4.1304 -0.0428 -0.8234
  183PVA     C730961   7.139   7.679   1.610 -0.8405  0.4740  0.0530
  183PVA    H1330962   7.097   7.585   1.646  0.8758 -0.2900  0.1295
  183PVA    H1430963   7.155   0.045   1.706  0.9048 -2.3404  1.3680
  183PVA     C830964   7.299   7.659   1.570  0.8298  0.4878 -0.3431
  183PVA    H1530965   7.305   0.082   1.552  0.8113  1.3236  3.6935
  183PVA     O330966   7.301   7.595   1.450 -0.7350  0.2243  0.7172
  183PVA    H1630967   7.386   7.612   1.404 -1.1582  0.3757 -0.0259
  183PVA     C930968   7.404   7.586   1.650  0.3397 -0.2841 -0.1798
  183PVA    H1730969   7.402   7.597   1.759  2.5774 -1.7151  0.0653
  183PVA    H1830970   7.479   7.665   1.638  0.6793 -0.6419 -0.4260
  183PVA    C1030971   7.483   7.460   1.617 -1.1494  0.1569 -0.2585
  183PVA    H1930972   7.414   7.375   1.628 -0.1612 -0.4647  1.7286
  183PVA    H2030973   7.498   7.463   1.509  4.3751  0.9231  0.2138
  183PVA    C1130974   7.626   7.431   1.685 -0.9035 -0.5190  0.5511
  183PVA    H2130975   7.691   7.479   1.611 -1.9330 -0.5599 -0.4024
  183PVA     O430976   7.651   7.494   1.812 -0.1494 -0.6689  0.4741
  183PVA    H2230977   7.730   7.461   1.858  1.2264  3.5677  1.5401
  183PVA    C1230978   7.679   7.285   1.689 -0.0941 -0.2842  0.9072
  183PVA    H2330979   7.638   7.217   1.764  2.6634 -0.9244  1.9500
  183PVA    H2430980   7.656   7.265   1.584  1.8296 -0.3803  0.4820
  183PVA    C1330981   0.072   7.276   1.702  0.7052  0.0981 -0.1765
  183PVA    H2530982   0.105   7.258   1.805  0.1924  2.6505  0.5161
  183PVA    H2630983   0.108   7.376   1.677  0.9322  0.1248  0.2460
  183PVA    C1430984   0.146   7.189   1.590 -0.2877 -1.7402 -0.2084
  183PVA    H2730985   0.130   7.229   1.489 -3.3999 -2.2139  0.0013
  183PVA     O530986   0.284   7.207   1.617 -0.9327 -0.7869 -0.7596
  183PVA    H2830987   0.314   7.286   1.569 -1.3546 -1.1546 -1.6485
  183PVA    C1530988   0.113   7.032   1.603 -0.6196 -0.3177  0.7996
  183PVA    H2930989   0.159   6.979   1.688  2.1977  3.5202  1.9913
  183PVA    H3030990   0.004   7.026   1.608 -0.6434  0.3536  1.1799
  183PVA    C1630991   0.149   6.946   1.477 -0.1936 -0.2219  0.4429
  183PVA    H3130992   0.161   7.003   1.383  0.3593 -1.0267  0.0158
  183PVA    H3230993   0.244   6.892   1.487  0.9066  1.4896 -0.2250
  183PVA    C1730994   0.034   6.840   1.458 -1.1382  1.0923 -1.1240
  183PVA    H3330995   7.703   6.862   1.507 -1.3803 -1.3874 -0.3650
  183PVA     O630996   0.087   6.724   1.515 -0.0366 -0.6285 -0.0580
  183PVA    H3430997   0.015   6.687   1.568 -0.8869  0.6204 -0.3002
  183PVA    C1830998   0.009   6.807   1.306 -0.3009  0.5641 -0.5810
  183PVA    H3530999   0.044   6.890   1.242  5.1676 -0.4659  0.5859
  183PVA    H3631000   0.083   6.730   1.281 -0.6443 -0.4280  1.2887
  183PVA    C1931001   7.626   6.765   1.283 -0.8319 -0.6803  0.3994
  183PVA    H3731002   7.587   6.834   1.206  3.0557  1.7765  0.3655
  183PVA    H3831003   7.566   6.800   1.368 -0.9926  0.7218 -0.2577
  183PVA    C2031004   7.574   6.621   1.243  0.7320  0.0836  0.5433
  183PVA    H3931005   7.655   6.549   1.261  3.5218  2.0334 -2.9494
  183PVA     O731006   7.486   6.568   1.345  0.2294 -0.4052 -0.0673
  183PVA    H4031007   7.405   6.558   1.293  0.7108  0.1808 -0.9630
  183PVA    C2131008   7.497   6.602   1.103  0.3695 -0.4473  0.7877
  183PVA    H4131009   7.404   6.660   1.099 -1.5172 -3.2805 -3.4756
  183PVA    H4231010   7.561   6.616   1.015 -1.0843  1.7135  0.0020
  183PVA    C2231011   7.461   6.456   1.074  1.8534 -0.9771  1.6691
  183PVA    H4331012   7.544   6.388   1.097  1.5623 -1.3866  1.5078
  183PVA    H4431013   7.370   6.437   1.133 -1.7079 -0.2976 -3.0306
  183PVA    C2331014   7.395   6.426   0.925  0.0994 -0.7304 -0.9752
  183PVA    H4531015   7.357   6.520   0.883  0.0682 -1.2909 -2.2527
  183PVA     O831016   7.284   6.346   0.946  0.5332  0.1107 -0.2388
  183PVA    H4631017   7.230   6.390   1.014  0.7749  0.7820 -0.4679
  183PVA    C2431018   7.480   6.370   0.810 -0.4743  0.8364  1.6721
  183PVA    H4731019   7.586   6.395   0.802  0.2084 -2.2102 -1.0004
  183PVA    H4831020   7.489   6.261   0.822 -0.4738  0.8911  2.2044
  183PVA    C2531021   7.410   6.387   0.672  0.2140  0.5264 -0.0742
  183PVA    H4931022   7.405   6.495   0.653  1.3523  0.7343  0.6646
  183PVA    H5031023   7.305   6.357   0.669  0.5914 -0.8139 -0.7947
  183PVA    C2631024   7.482   6.323   0.550 -0.1401  0.8773 -0.7320
  183PVA    H5131025   7.555   6.255   0.595 -1.7043 -0.6755 -0.4490
  183PVA     O931026   7.551   6.422   0.481  0.7696  0.1279  0.1157
  183PVA    H5231027   7.477   6.481   0.458  0.2914  1.4664  4.2136
  183PVA    C2731028   7.401   6.230   0.454  0.8227 -0.9096 -0.3928
  183PVA    H5331029   7.323   6.305   0.439  2.0917  0.1896 -1.8793
  183PVA    H5431030   7.358   6.159   0.526  0.3838 -0.9440 -0.6865
  183PVA    C2831031   7.451   6.182   0.307 -1.5310  0.0068 -0.7921
  183PVA    H5531032   7.516   6.262   0.269 -0.6291 -1.5847 -2.8035
  183PVA    H5631033   7.523   6.101   0.325 -0.0101  1.3099 -0.7547
  183PVA    C2931034   7.346   6.135   0.210 -0.0985 -0.9552 -1.1008
  183PVA    H5731035   7.297   6.053   0.264 -1.2209 -0.4967 -1.3859
  183PVA    O1031036   7.252   6.249   0.196  0.2743  0.3466 -0.3148
  183PVA    H5831037   7.228   6.248   0.102  3.1680 -1.4159 -1.1204
  183PVA    C3031038   7.397   6.081   0.071 -0.2830  1.0840 -0.4877
  183PVA    H5931039   7.409   6.159   8.093 -0.7277  1.0009 -0.6527
  183PVA    H6031040   7.492   6.028   0.074  0.7936  2.9582  1.4676
  183PVA    C3131041   7.292   5.981   8.088  0.7646 -0.8256 -0.4460
  183PVA    H6131042   7.203   5.953   0.047  2.0244 -0.5139  1.8300
  183PVA    H6231043   7.340   5.882   8.085 -1.7707 -2.1425  0.0898
  183PVA    C3231044   7.269   6.017   7.937  0.4482  0.2006 -0.9220
  183PVA    H6331045   7.185   6.085   7.917 -1.0469 -1.5998 -1.0821
  183PVA    O1131046   7.395   6.064   7.876 -0.4850 -0.3517 -0.1547
  183PVA    H6431047   7.474   6.019   7.911 -0.6683 -0.0783  0.6219
  183PVA    C3331048   7.222   5.902   7.837 -0.5672 -0.5495 -0.2927
  183PVA    H6531049   7.308   5.859   7.783 -0.1841  0.4354 -0.4884
  183PVA    H6631050   7.173   5.822   7.893 -0.4018  0.1242  0.8432
  183PVA    C3431051   7.130   5.941   7.718 -0.5140  0.2435 -0.2428
  183PVA    H6731052   7.028   5.935   7.757 -1.4517 -0.5347 -2.6888
  183PVA    H6831053   7.170   6.031   7.671  1.7397 -0.3159  0.4717
  183PVA    C3531054   7.127   5.831   7.610  0.1942  1.1917  0.2813
  183PVA    H6931055   7.161   5.734   7.650 -2.0813 -0.7938 -2.1968
  183PVA    O1231056   7.222   5.860   7.507  0.0885  0.3256 -0.8933
  183PVA    H7031057   7.199   5.948   7.471 -4.4462 -0.7745 -1.2180
  183PVA    C3631058   6.985   5.794   7.546  1.1279 -0.3009  0.3877
  183PVA    H7131059   6.908   5.855   7.595 -0.3190 -1.5761 -0.1994
  183PVA    H7231060   6.942   5.703   7.590 -0.6244  1.1021  1.7088
  183PVA    C3731061   6.964   5.809   7.392 -0.5762 -0.0388 -0.3676
  183PVA    H7331062   7.042   5.754   7.337 -0.6937 -3.1916  2.3151
  183PVA    H7431063   6.968   5.917   7.369 -1.0652  0.0319 -0.1213
  183PVA    C3831064   6.820   5.748   7.363  0.6969  0.9631  0.0596
  183PVA    H7531065   6.751   5.795   7.434  0.8490 -0.5222  1.2421
  183PVA    O1331066   6.828   5.601   7.378 -0.3765  0.1932  0.1808
  183PVA    H7631067   6.780   5.579   7.459 -0.4641 -1.9038 -0.3826
  183PVA    C3931068   6.757   5.780   7.229 -0.2537 -0.1011  0.5629
  183PVA    H7731069   6.820   5.722   7.159 -0.3595 -2.0042  1.9642
  183PVA    H7831070   6.753   5.885   7.198 -3.9960 -0.0962  0.7010
  183PVA    C4031071   6.612   5.727   7.217  0.2656 -0.2032 -0.7064
  183PVA    H7931072   6.612   5.618   7.204 -0.9379 -0.6066  1.9403
  183PVA    H8031073   6.542   5.742   7.301 -2.8367 -0.1502 -3.1070
  183PVA    C4131074   6.536   5.769   7.091  1.6245 -0.2886  0.2813
  183PVA    H8131075   6.607   5.742   7.012  5.0592 -0.3721  3.1842
  183PVA    O1431076   6.528   5.920   7.104 -0.3263 -0.2801 -0.4454
  183PVA    H8231077   6.440   5.931   7.066 -0.4474 -1.1657 -0.4597
  183PVA    C4231078   6.393   5.702   7.079  1.7039 -0.0698  0.2083
  183PVA    H8331079   6.337   5.726   7.170 -1.1112  3.3311 -2.1424
  183PVA    H8431080   6.411   5.594   7.082  2.6169  0.0872  2.8804
  183PVA    C4331081   6.303   5.751   6.953  0.5195  0.3797 -0.0199
  183PVA    H8531082   6.372   5.740   6.869 -0.2488 -3.3738 -0.3596
  183PVA    H8631083   6.271   5.851   6.984  1.4795 -0.4091  4.1768
  183PVA    C4431084   6.173   5.663   6.920 -0.5376  0.6574 -0.2710
  183PVA    H8731085   6.116   5.645   7.013 -1.0468  4.1012  0.2447
  183PVA    O1531086   6.219   5.539   6.876  0.2149  0.4907 -0.7352
  183PVA    H8831087   6.222   5.470   6.944  0.7413  0.4595 -0.7860
  183PVA    C4531088   6.089   5.740   6.809  0.8438 -0.9087  0.3365
  183PVA    H8931089   6.149   5.772   6.723 -1.4505 -0.8553 -1.3644
  183PVA    H9031090   6.056   5.830   6.863  0.6712  0.9662 -2.6660
  183PVA    C4631091   5.956   5.664   6.752 -0.1853 -0.2983  0.6675
  183PVA    H9131092   6.011   5.569   6.740  3.4855  1.6944  0.0723
  183PVA    H9231093   5.870   5.652   6.818 -1.2329 -1.6691 -0.8779
  183PVA    C4731094   5.915   5.711   6.610 -0.3695  1.4048 -0.3207
  183PVA    H9331095   6.002   5.715   6.544 -0.9749  4.8128 -1.1332
  183PVA    O1631096   5.848   5.840   6.612 -0.4644  1.1347  0.2051
  183PVA    H9431097   5.760   5.825   6.572  0.5346 -3.0872 -0.8540
  183PVA    C4831098   5.808   5.625   6.528 -0.1489  0.0835 -0.5271
  183PVA    H9531099   5.709   5.662   6.558 -1.1721 -0.6432 -2.7754
  183PVA    H9631100   5.809   5.518   6.553 -4.4405 -0.2815 -1.1291
  183PVA    C4931101   5.820   5.625   6.367  0.4762  0.6363  0.2169
  183PVA    H9731102   5.900   5.563   6.325 -1.8944 -1.1542 -1.9392
  183PVA    H9831103   5.826   5.724   6.319  0.6345  0.8245  0.6215
  183PVA    C5031104   5.699   5.564   6.288  0.4357  0.1420 -0.0265
  183PVA    H9931105   5.692   5.597   6.184 -0.9532 -0.6489 -0.2108
  183PVA    O1731106   5.573   5.608   6.357  0.2010  0.0490 -0.2614
  183PVA   H10031107   5.522   5.526   6.355  0.4045 -0.6442  5.8451
  183PVA    C5131108   5.703   5.412   6.281  0.5324 -0.6034 -0.4469
  183PVA   H10131109   5.614   5.358   6.314  0.2650 -0.9352 -1.6426
  183PVA   H10231110   5.787   5.376   6.342  1.1678  1.7825  0.2065
  184PVA     C131111   0.910   1.154   4.747 -0.0069  0.0734  0.2833
  184PVA     H131112   0.973   1.149   4.658  0.3176 -0.8263  0.5463
  184PVA     H231113   0.967   1.179   4.837  4.5082 -0.1062 -2.2343
  184PVA     C231114   0.809   1.281   4.728 -1.3601  0.0993 -0.8620
  184PVA     H331115   0.758   1.286   4.825  3.4077  2.2671  1.8535
  184PVA     O131116   0.745   1.285   4.609  0.1192 -0.4948  0.5811
  184PVA     H431117   0.783   1.220   4.548  0.4161  1.5266 -1.5087
  184PVA     C331118   0.893   1.417   4.737 -1.1240 -0.2019  0.0254
  184PVA     H531119   0.965   1.430   4.655 -1.2672  0.1481 -0.0485
  184PVA     H631120   0.937   1.404   4.837 -1.9842 -0.1499  0.4207
  184PVA     C431121   0.801   1.542   4.743  1.2373 -0.9052 -0.1883
  184PVA     H731122   0.699   1.515   4.775  2.4424 -2.4981  2.6850
  184PVA     H831123   0.780   1.567   4.638  0.1155 -2.1263 -0.2835
  184PVA     C531124   0.856   1.663   4.819 -0.2110  1.2021 -1.3351
  184PVA     H931125   0.848   1.643   4.927 -0.5471  4.2358 -0.7024
  184PVA     O231126   0.990   1.709   4.788  0.4412 -1.0893  0.0619
  184PVA    H1031127   1.006   1.789   4.841  0.1089 -0.9629 -0.0250
  184PVA     C631128   0.760   1.787   4.805  0.6959  0.4548 -0.8960
  184PVA    H1131129   0.668   1.756   4.856  0.8663  2.3278  0.6771
  184PVA    H1231130   0.783   1.871   4.872  0.3901 -1.8128  2.2974
  184PVA     C731131   0.754   1.841   4.662  0.3147  0.4616  0.1156
  184PVA    H1331132   0.712   1.766   4.594  2.7162 -2.2108  1.3131
  184PVA    H1431133   0.862   1.842   4.641  0.4499  4.1053  0.4719
  184PVA     C831134   0.681   1.978   4.644  0.4604  0.1482 -1.3360
  184PVA    H1531135   0.688   2.054   4.722 -3.7681 -2.3635  1.9447
  184PVA     O331136   0.549   1.948   4.674  0.5130  0.0984  0.4282
  184PVA    H1631137   0.536   1.858   4.639 -1.6727 -0.0581  1.5168
  184PVA     C931138   0.709   2.036   4.501  0.0381  0.3412  0.4634
  184PVA    H1731139   0.818   2.036   4.489  0.4072 -2.4231  2.7015
  184PVA    H1831140   0.656   1.967   4.433  1.1736  0.2944 -0.4257
  184PVA    C1031141   0.658   2.172   4.456 -0.1733 -0.1150  0.2042
  184PVA    H1931142   0.658   2.164   4.347  2.0289  2.0316 -0.0261
  184PVA    H2031143   0.735   2.243   4.488  0.5404 -0.1136 -1.4487
  184PVA    C1131144   0.525   2.207   4.519  1.0031 -0.1985  0.4422
  184PVA    H2131145   0.481   2.109   4.539  2.0386 -1.5610 -3.2481
  184PVA     O431146   0.552   2.260   4.655 -0.1725 -0.0277  1.0260
  184PVA    H2231147   0.602   2.184   4.690 -1.1113 -0.2151  2.0149
  184PVA    C1231148   0.439   2.312   4.434  0.0502 -1.1013 -0.0821
  184PVA    H2331149   0.489   2.410   4.438  0.8401 -1.3832  5.6854
  184PVA    H2431150   0.427   2.262   4.337 -0.6214 -4.2655  1.4836
  184PVA    C1331151   0.300   2.330   4.485 -0.3118 -0.1692 -0.1447
  184PVA    H2531152   0.314   2.344   4.593  1.7248 -1.5505 -0.1695
  184PVA    H2631153   0.249   2.233   4.483  1.2984 -1.0397 -1.8117
  184PVA    C1431154   0.215   2.431   4.404  0.5216 -0.5287 -0.8498
  184PVA    H2731155   0.108   2.406   4.394  1.0867 -2.4151 -3.1347
  184PVA     O531156   0.244   2.437   4.264  0.7220 -0.2024 -0.1146
  184PVA    H2831157   0.215   2.351   4.227  1.0188 -0.4982  0.3271
  184PVA    C1531158   0.216   2.583   4.459  0.0240  0.6438 -0.3800
  184PVA    H2931159   0.312   2.629   4.431 -0.1025  1.5672  0.6195
  184PVA    H3031160   0.222   2.588   4.569 -1.4084  2.0483 -0.3242
  184PVA    C1631161   0.104   2.680   4.420 -0.6751 -0.1581 -0.2935
  184PVA    H3131162   0.130   2.783   4.449 -1.6944 -0.4793  1.9464
  184PVA    H3231163   0.089   2.691   4.312  1.0034 -4.1643 -1.0822
  184PVA    C1731164   7.732   2.654   4.493 -0.8236  1.9763  0.1218
  184PVA    H3331165   7.698   2.553   4.470 -0.7299  1.7593  0.9001
  184PVA     O631166   7.732   2.655   4.636  0.7271  0.2470  0.4882
  184PVA    H3431167   7.641   2.660   4.670  0.0614  0.8782 -1.2923
  184PVA    C1831168   7.619   2.753   4.442  0.2862  0.2616  0.4628
  184PVA    H3531169   7.636   2.780   4.337  4.6763  1.3662  1.2425
  184PVA    H3631170   7.515   2.718   4.443 -0.4296  1.9261 -2.6704
  184PVA    C1931171   7.635   2.897   4.509  0.5642  0.2138  0.0089
  184PVA    H3731172   7.622   2.973   4.431 -2.0045 -0.3735 -0.2427
  184PVA    H3831173   7.732   2.911   4.558  0.2243 -1.2745  1.1842
  184PVA    C2031174   7.524   2.917   4.613  1.2248 -0.4248 -0.0436
  184PVA    H3931175   7.431   2.865   4.587  1.7992 -2.1121  1.1309
  184PVA     O731176   7.542   2.854   4.734 -0.7783  0.3975  0.4225
  184PVA    H4031177   7.630   2.879   4.768 -0.7908  2.3039 -0.7886
  184PVA    C2131178   7.488   3.068   4.636 -0.0911  0.1381 -0.0313
  184PVA    H4131179   7.552   3.109   4.714 -2.4649 -3.5700  4.3117
  184PVA    H4231180   7.492   3.130   4.545  0.3540 -2.0425 -1.5901
  184PVA    C2231181   7.350   3.084   4.693  0.5342 -0.0524 -0.0122
  184PVA    H4331182   7.283   3.043   4.616  0.3924 -1.3847  0.7916
  184PVA    H4431183   7.335   3.017   4.778 -1.4958  0.5113  0.1203
  184PVA    C2331184   7.312   3.234   4.733  0.7247  1.7677 -1.2656
  184PVA    H4531185   7.388   3.262   4.806  3.4260 -0.0853 -3.1560
  184PVA     O831186   7.330   3.311   4.620 -0.7178 -0.3867  0.3761
  184PVA    H4631187   7.418   3.289   4.586 -1.3693 -4.4577  0.8416
  184PVA    C2431188   7.165   3.260   4.781 -0.4267 -0.0157  0.2542
  184PVA    H4731189   7.151   3.367   4.762 -1.1482 -0.2626 -0.7037
  184PVA    H4831190   7.092   3.215   4.712  1.8028 -0.0622 -2.2673
  184PVA    C2531191   7.133   3.244   4.938  0.4259  0.1107  0.2187
  184PVA    H4931192   7.166   3.343   4.974  4.3051  0.0977 -2.7223
  184PVA    H5031193   7.181   3.162   4.992  2.9834  2.4719  1.8035
  184PVA    C2631194   6.979   3.234   4.964  0.4311 -0.8562 -0.0105
  184PVA    H5131195   6.941   3.157   4.896  2.6185 -5.5650  3.5982
  184PVA     O931196   6.900   3.340   4.928 -0.3637  0.0669 -0.1815
  184PVA    H5231197   6.862   3.382   5.007 -1.1625 -2.3090  0.7960
  184PVA    C2731198   6.964   3.184   5.112 -0.0389  0.0772 -0.3563
  184PVA    H5331199   7.039   3.253   5.152  1.3806 -1.5226 -0.1741
  184PVA    H5431200   6.993   3.079   5.124  0.2764  0.3920  1.9990
  184PVA    C2831201   6.835   3.219   5.182  0.7913  0.1008 -0.2483
  184PVA    H5531202   6.820   3.328   5.182 -1.9860 -0.2091 -0.1038
  184PVA    H5631203   6.746   3.174   5.135  1.6138 -3.0440  1.0314
  184PVA    C2931204   6.848   3.182   5.332 -0.0621  0.6332  0.8529
  184PVA    H5731205   6.941   3.232   5.362  1.0023 -0.0848 -1.0963
  184PVA    O1031206   6.842   3.044   5.342 -0.1395 -0.1106 -1.0248
  184PVA    H5831207   6.831   3.032   5.246 -0.2645  1.9085 -1.3044
  184PVA    C3031208   6.733   3.240   5.414 -0.0731  0.3817 -0.6199
  184PVA    H5931209   6.720   3.345   5.383 -2.8626  0.9465  1.9759
  184PVA    H6031210   6.640   3.186   5.392  0.3312 -0.0454 -1.3066
  184PVA    C3131211   6.761   3.241   5.562  0.1233  0.5690 -0.5702
  184PVA    H6131212   6.756   3.135   5.586 -1.4235  1.2499  2.6219
  184PVA    H6231213   6.864   3.267   5.591  2.3145 -5.2593 -1.8777
  184PVA    C3231214   6.645   3.308   5.639  0.2416 -0.6562  0.9995
  184PVA    H6331215   6.562   3.237   5.641  0.1413 -0.5299  1.3631
  184PVA    O1131216   6.614   3.436   5.584  0.2582 -0.4041  0.7576
  184PVA    H6431217   6.585   3.494   5.657  2.0394 -0.8823  1.9234
  184PVA    C3331218   6.677   3.311   5.789 -1.0115 -0.8804 -0.2297
  184PVA    H6531219   6.760   3.382   5.789 -4.5082  3.8042 -1.8742
  184PVA    H6631220   6.735   3.222   5.814  1.2324 -0.5057 -3.5163
  184PVA    C3431221   6.546   3.347   5.869  0.8011 -0.0600  1.5565
  184PVA    H6731222   6.525   3.443   5.820  4.7820  0.7503  1.0527
  184PVA    H6831223   6.473   3.269   5.842 -0.4305  2.1696 -2.3301
  184PVA    C3531224   6.569   3.375   6.015 -0.6370 -0.0775 -0.5247
  184PVA    H6931225   6.658   3.437   6.030  0.5858 -2.2699  2.1527
  184PVA    O1231226   6.598   3.260   6.080 -0.1455  0.6111  0.4369
  184PVA    H7031227   6.666   3.212   6.028  1.3169  0.7594  2.1105
  184PVA    C3631228   6.450   3.449   6.076  0.0731  0.0582  0.1889
  184PVA    H7131229   6.386   3.379   6.132  0.7549 -1.0266 -0.3675
  184PVA    H7231230   6.377   3.499   6.011 -1.2156 -0.6849  0.9957
  184PVA    C3731231   6.469   3.553   6.185 -0.0888  0.1901 -0.0443
  184PVA    H7331232   6.550   3.622   6.158 -1.0702  1.1615 -0.5575
  184PVA    H7431233   6.489   3.502   6.281 -1.3139 -1.1182 -0.4525
  184PVA    C3831234   6.343   3.635   6.209 -0.6124  0.9967 -0.3466
  184PVA    H7531235   6.362   3.687   6.303  1.2033 -2.1408  1.2129
  184PVA    O1331236   6.214   3.562   6.231 -0.2684  0.1295  0.3005
  184PVA    H7631237   6.260   3.477   6.241  0.6690  0.1624 -2.8799
  184PVA    C3931238   6.330   3.741   6.106  0.1713  0.9082  0.2818
  184PVA    H7731239   6.325   3.705   6.003  4.0140  1.8044 -0.3821
  184PVA    H7831240   6.229   3.783   6.104 -1.1854 -2.0610 -2.0908
  184PVA    C4031241   6.432   3.846   6.118 -0.9876 -0.0504  0.4506
  184PVA    H7931242   6.509   3.841   6.040 -1.1524  1.2600  0.1711
  184PVA    H8031243   6.474   3.863   6.218  1.4600 -2.4288 -0.0725
  184PVA    C4131244   6.377   3.996   6.085  0.1442  0.5199 -0.9146
  184PVA    H8131245   6.458   4.067   6.104 -0.3128  0.1059  3.6975
  184PVA    O1431246   6.336   3.995   5.938 -0.3673  0.2666 -0.3824
  184PVA    H8231247   6.255   3.941   5.933  0.4678 -2.2298  5.0805
  184PVA    C4231248   6.247   4.054   6.164  0.2447 -0.0334 -0.2424
  184PVA    H8331249   6.187   3.973   6.205  0.8123  1.0337  3.0165
  184PVA    H8431250   6.281   4.120   6.246 -1.4907  2.1130 -1.1555
  184PVA    C4331251   6.155   4.154   6.090 -0.3422 -1.0675  0.1710
  184PVA    H8531252   6.054   4.146   6.131 -1.1910 -0.8733 -1.8069
  184PVA    H8631253   6.146   4.118   5.987 -1.8119 -0.8001  0.1816
  184PVA    C4431254   6.210   4.297   6.082  0.7765 -1.1735 -0.1140
  184PVA    H8731255   6.207   4.330   6.186 -2.2792  0.3704 -0.5913
  184PVA    O1531256   6.340   4.297   6.058 -0.4861  0.3112  1.3762
  184PVA    H8831257   6.327   4.228   5.990 -0.3066  0.1559  1.5010
  184PVA    C4531258   6.131   4.392   5.983 -0.1759 -0.1416 -0.8658
  184PVA    H8931259   6.199   4.462   5.933  1.5180 -1.4118 -0.4590
  184PVA    H9031260   6.097   4.328   5.901  2.1569 -1.6540 -0.7662
  184PVA    C4631261   6.020   4.473   6.050  0.3999  0.4461 -0.0750
  184PVA    H9131262   5.967   4.403   6.116  0.4471  0.0050 -0.4969
  184PVA    H9231263   6.065   4.548   6.116  0.3141 -0.4505  1.0164
  184PVA    C4731264   5.926   4.556   5.959 -0.5838  0.6635  0.8705
  184PVA    H9331265   5.996   4.635   5.933  0.4743 -0.1998  1.0048
  184PVA    O1631266   5.883   4.467   5.857 -0.1756  0.8603  0.1093
  184PVA    H9431267   5.843   4.396   5.910  0.7442  0.4553  0.2886
  184PVA    C4831268   5.815   4.628   6.019  0.2762 -0.2580 -0.0190
  184PVA    H9531269   5.765   4.689   5.943  2.2830  3.2154  1.2364
  184PVA    H9631270   5.740   4.562   6.063 -2.3075  1.1018 -2.1131
  184PVA    C4931271   5.851   4.744   6.122 -1.4933 -0.6524  0.4869
  184PVA    H9731272   5.807   4.734   6.221  2.3859 -0.9553  2.3554
  184PVA    H9831273   5.948   4.708   6.157 -1.3873 -1.3073 -0.4337
  184PVA    C5031274   5.877   4.896   6.083  0.7013  0.4950  0.0804
  184PVA    H9931275   5.929   4.951   6.163 -0.1845  4.8938 -2.0419
  184PVA    O1731276   5.961   4.896   5.972 -0.2091  0.0423  0.6218
  184PVA   H10031277   5.896   4.906   5.900  2.8603  1.1634 -2.2405
  184PVA    C5131278   5.737   4.964   6.045  0.2477  0.2405 -0.7933
  184PVA   H10131279   5.674   4.959   6.135 -0.1281  0.3456 -1.0501
  184PVA   H10231280   5.688   4.890   5.981  5.5402 -2.6275 -2.1203
  185PVA     C131281   0.624   0.835   5.044 -1.3240 -0.4148  0.3296
  185PVA     H131282   0.536   0.892   5.011  0.4763  1.0439 -2.3180
  185PVA     H231283   0.613   0.726   5.043  3.8513 -1.1797 -0.4637
  185PVA     C231284   0.624   0.871   5.193 -0.7276  0.4132  0.5871
  185PVA     H331285   0.636   0.980   5.192 -1.9829  0.6260  2.4891
  185PVA     O131286   0.736   0.806   5.250 -1.2230 -0.2197 -0.1776
  185PVA     H431287   0.752   0.744   5.177  1.1857  2.8434 -2.5744
  185PVA     C331288   0.497   0.853   5.280  0.3386  0.3151  0.1086
  185PVA     H531289   0.433   0.935   5.245  2.1594  1.9742  0.4729
  185PVA     H631290   0.439   0.765   5.250 -0.3587  1.0419 -0.6965
  185PVA     C431291   0.512   0.859   5.434  0.5848 -0.0191  0.1417
  185PVA     H731292   0.513   0.963   5.468  1.2047  0.8411 -2.2889
  185PVA     H831293   0.602   0.802   5.461  0.9409 -0.6990 -2.2726
  185PVA     C531294   0.387   0.801   5.509  0.7161  0.6721 -0.5963
  185PVA     H931295   0.400   0.697   5.539 -0.2508  0.9443  0.9039
  185PVA     O231296   0.262   0.824   5.440  1.3219 -0.2602 -0.7357
  185PVA    H1031297   0.206   0.870   5.506  1.5585  1.8941 -1.9360
  185PVA     C631298   0.369   0.846   5.662 -0.4090  0.4939 -0.3016
  185PVA    H1131299   0.464   0.832   5.715  1.0244  4.9246 -1.2705
  185PVA    H1231300   0.370   0.955   5.676  2.4068  0.1660  3.9373
  185PVA     C731301   0.260   0.773   5.736  0.3330  1.0682  0.4514
  185PVA    H1331302   0.263   0.666   5.714  3.2422  0.8573  1.5506
  185PVA    H1431303   0.168   0.801   5.682 -0.5227  0.8940  1.7628
  185PVA     C831304   0.257   0.805   5.893 -0.2427  0.9299  1.2506
  185PVA    H1531305   0.349   0.780   5.948  0.2762 -2.4015 -0.8757
  185PVA     O331306   0.240   0.943   5.898  0.5039 -0.2410 -0.2776
  185PVA    H1631307   0.227   0.996   5.817  1.0243 -0.0143 -0.2209
  185PVA     C931308   0.145   0.759   5.982  0.5549  0.4589 -0.0103
  185PVA    H1731309   0.052   0.800   5.942  0.1646 -0.4076 -0.0060
  185PVA    H1831310   0.128   0.651   5.974  1.5390  0.2462  0.5922
  185PVA    C1031311   0.151   0.796   6.134 -0.1699 -0.2147 -0.8655
  185PVA    H1931312   0.229   0.749   6.194 -4.0762 -0.9100  4.4258
  185PVA    H2031313   0.168   0.905   6.128  0.0296 -0.0383  1.7250
  185PVA    C1131314   0.026   0.785   6.222 -0.0569  1.1147  0.3025
  185PVA    H2131315   7.715   0.838   6.163  0.2393  1.3652  0.1360
  185PVA     O431316   7.752   0.649   6.208 -0.5811  0.6858  0.2219
  185PVA    H2231317   0.019   0.586   6.274  0.3842 -2.4128 -2.9040
  185PVA    C1231318   0.032   0.854   6.365  0.9592 -0.0189 -0.4916
  185PVA    H2331319   0.089   0.946   6.345  3.1756 -0.9336  1.1361
  185PVA    H2431320   0.088   0.785   6.430  0.8640 -0.6204 -1.0468
  185PVA    C1331321   7.656   0.871   6.438 -0.2733 -0.0447  0.5394
  185PVA    H2531322   7.623   0.775   6.479  1.4156 -0.2791  1.4356
  185PVA    H2631323   7.576   0.887   6.365 -0.1114 -0.2964  0.3035
  185PVA    C1431324   7.651   0.974   6.559 -0.6902  0.0296  0.0440
  185PVA    H2731325   7.702   0.924   6.643 -0.4256 -1.4406 -0.9582
  185PVA     O531326   7.701   1.098   6.514 -0.6202  0.4075  0.6565
  185PVA    H2831327   0.028   1.125   6.530  0.0787 -1.1792 -0.4558
  185PVA    C1531328   7.503   1.016   6.595  0.7115 -0.6222 -0.4442
  185PVA    H2931329   7.446   0.924   6.613 -1.7131  1.3210  2.9409
  185PVA    H3031330   7.466   1.079   6.513  2.1149 -3.1295 -3.1672
  185PVA    C1631331   7.477   1.104   6.730 -1.0896 -0.4749 -0.6818
  185PVA    H3131332   7.497   1.053   6.825 -2.5228  0.6592  0.2750
  185PVA    H3231333   7.552   1.183   6.738  2.0033 -2.9079 -3.1638
  185PVA    C1731334   7.334   1.156   6.744 -0.4667  0.5027  0.5700
  185PVA    H3331335   7.307   1.234   6.672  1.5463 -0.4503 -1.3605
  185PVA     O631336   7.245   1.054   6.715  0.3742 -0.2344  0.1157
  185PVA    H3431337   7.233   1.048   6.618 -0.5461 -6.0152  0.2314
  185PVA    C1831338   7.305   1.213   6.878  0.2029  0.4397  0.9906
  185PVA    H3531339   7.329   1.141   6.958 -1.4495 -1.9471 -0.5121
  185PVA    H3631340   7.373   1.298   6.887  1.1283 -0.1414 -0.1821
  185PVA    C1931341   7.162   1.267   6.904  0.4267 -0.6496 -1.7365
  185PVA    H3731342   7.098   1.177   6.905  0.9087 -1.0555  0.8179
  185PVA    H3831343   7.132   1.332   6.822 -0.9561  4.6155  2.3660
  185PVA    C2031344   7.147   1.336   7.047  0.2146 -0.3765 -1.2865
  185PVA    H3931345   7.239   1.383   7.082 -0.9282  1.9831 -1.2536
  185PVA     O731346   7.142   1.224   7.141  0.1924 -0.6939 -0.3937
  185PVA    H4031347   7.135   1.277   7.222 -2.2938 -1.1996 -0.1970
  185PVA    C2131348   7.040   1.441   7.076 -0.0006  0.9362 -0.2781
  185PVA    H4131349   6.942   1.392   7.066 -0.1434  0.6781  1.8899
  185PVA    H4231350   7.030   1.503   6.986  1.3923  0.3946 -0.8307
  185PVA    C2231351   7.063   1.522   7.210  0.0782 -0.9232 -0.7337
  185PVA    H4331352   7.018   1.462   7.290 -2.3071  0.3055 -1.0532
  185PVA    H4431353   7.172   1.508   7.216  0.3675 -0.0808 -2.9146
  185PVA    C2331354   7.044   1.682   7.207 -0.0988  0.3520 -0.1072
  185PVA    H4531355   7.070   1.718   7.107  0.6735  2.3650  0.7665
  185PVA     O831356   6.905   1.710   7.224  0.2403  0.0487 -0.6088
  185PVA    H4631357   6.882   1.789   7.172 -0.0808  1.6301  1.7936
  185PVA    C2431358   7.123   1.774   7.306 -0.3938 -1.5999 -0.0302
  185PVA    H4731359   7.200   1.708   7.349  0.8388  1.0246  2.0182
  185PVA    H4831360   7.055   1.781   7.392 -3.6326  0.7000 -2.5047
  185PVA    C2531361   7.182   1.923   7.278 -0.5193  0.2386 -0.0317
  185PVA    H4931362   7.100   1.995   7.269  1.8563  3.3111  0.9620
  185PVA    H5031363   7.222   1.923   7.176 -2.7123  1.3508 -0.9374
  185PVA    C2631364   7.281   2.004   7.369  0.8646  0.5155  0.6387
  185PVA    H5131365   7.365   1.934   7.376  0.2655 -0.3165 -0.3522
  185PVA     O931366   7.226   2.041   7.502 -0.6535 -0.2593  0.3635
  185PVA    H5231367   7.187   1.956   7.530  0.3288 -0.0406  2.6610
  185PVA    C2731368   7.331   2.131   7.296  0.1335  0.9840 -1.2184
  185PVA    H5331369   7.382   2.104   7.203 -2.7454  2.1791 -3.3083
  185PVA    H5431370   7.234   2.178   7.276  0.2006 -0.0758 -4.7594
  185PVA    C2831371   7.410   2.247   7.365  0.1015  0.4209 -0.2215
  185PVA    H5531372   7.366   2.271   7.463 -0.6656 -0.1795 -0.4082
  185PVA    H5631373   7.508   2.200   7.384  1.2972  1.9906 -2.0360
  185PVA    C2931374   7.427   2.382   7.282 -0.8631  0.4434 -0.7579
  185PVA    H5731375   7.477   2.345   7.192 -0.5283 -0.8015 -0.0834
  185PVA    O1031376   7.307   2.441   7.230 -0.5626 -0.3584  0.7674
  185PVA    H5831377   7.267   2.458   7.317  0.6485  0.0721  1.2705
  185PVA    C3031378   7.516   2.498   7.355  0.5446 -1.4328  0.4332
  185PVA    H5931379   7.467   2.596   7.357  0.2233 -1.6057  1.3032
  185PVA    H6031380   7.541   2.471   7.458  0.2436 -0.3593  0.8030
  185PVA    C3131381   7.651   2.533   7.280 -0.4159  0.0413 -0.0868
  185PVA    H6131382   7.635   2.555   7.174  0.2094  4.3254  0.5046
  185PVA    H6231383   7.717   2.446   7.277  4.4056  3.3247 -1.7968
  185PVA    C3231384   7.760   2.642   7.338  0.3726 -1.3633 -0.4821
  185PVA    H6331385   7.763   2.726   7.268  1.4045 -1.1978 -0.2576
  185PVA    O1131386   7.738   2.703   7.467 -0.1478 -0.7888 -0.1147
  185PVA    H6431387   0.046   2.672   7.523  0.4233 -1.0347 -0.9703
  185PVA    C3331388   0.150   2.595   7.345  0.2238  0.5282 -0.1306
  185PVA    H6531389   0.156   2.488   7.368 -0.1113  0.8241  1.5115
  185PVA    H6631390   0.179   2.594   7.240 -2.4606 -0.8076 -0.9473
  185PVA    C3431391   0.259   2.699   7.392 -0.3588 -0.0253  0.9339
  185PVA    H6731392   0.243   2.730   7.496  5.6164  0.2650  2.1088
  185PVA    H6831393   0.271   2.782   7.321 -4.9572  0.2058  0.1241
  185PVA    C3531394   0.400   2.633   7.404 -0.6034 -1.6307 -0.4576
  185PVA    H6931395   0.390   2.544   7.467  6.4797 -0.1660  3.8141
  185PVA    O1231396   0.449   2.601   7.265 -0.8408 -0.6370 -0.3830
  185PVA    H7031397   0.488   2.684   7.231 -0.3131 -0.7895 -0.1705
  185PVA    C3631398   0.515   2.719   7.482  1.1692 -0.4917 -0.0590
  185PVA    H7131399   0.525   2.810   7.420  0.2747 -0.6367 -0.4420
  185PVA    H7231400   0.476   2.761   7.575  2.2186  1.4069 -0.4218
  185PVA    C3731401   0.660   2.653   7.506  0.5331  0.5279 -0.7593
  185PVA    H7331402   0.705   2.612   7.415  5.1350  0.9610  1.0255
  185PVA    H7431403   0.665   2.578   7.586  1.3981  3.0487  1.7088
  185PVA    C3831404   0.769   2.763   7.566 -0.5288 -0.2858  0.4260
  185PVA    H7531405   0.782   2.832   7.482  3.8182 -0.3217  0.8543
  185PVA    O1331406   0.720   2.853   7.663 -0.1156 -0.7176  0.0532
  185PVA    H7631407   0.683   2.797   7.734  2.2572 -2.5069  0.0019
  185PVA    C3931408   0.905   2.708   7.636 -0.1365 -0.8888  0.3990
  185PVA    H7731409   0.961   2.637   7.574  0.9868  2.9809 -3.5185
  185PVA    H7831410   0.887   2.647   7.726 -1.4383 -1.9749 -0.5627
  185PVA    C4031411   1.012   2.817   7.680 -0.2572  0.2049  0.0396
  185PVA    H7931412   1.033   2.895   7.605  0.9580  1.4069  1.5630
  185PVA    H8031413   0.972   2.874   7.765  0.6826  1.3697 -0.2688
  185PVA    C4131414   1.148   2.756   7.728 -0.7094 -0.5717  1.3354
  185PVA    H8131415   1.120   2.712   7.824 -2.0197 -0.5159  1.0007
  185PVA    O1431416   1.195   2.661   7.648  0.6089  0.0223 -0.5764
  185PVA    H8231417   1.207   2.690   7.556 -3.2572 -1.7739 -1.8371
  185PVA    C4231418   1.263   2.856   7.758  0.2195  0.3337 -0.4362
  185PVA    H8331419   1.302   2.902   7.667 -0.3669  0.2535 -0.7312
  185PVA    H8431420   1.210   2.933   7.815  0.3918 -0.3905  0.7313
  185PVA    C4331421   1.380   2.788   7.843 -1.0128 -1.1806  0.1784
  185PVA    H8531422   1.354   2.788   7.950  0.6910 -2.0812  0.6215
  185PVA    H8631423   1.408   2.685   7.818  2.1238 -0.6419  1.0245
  185PVA    C4431424   1.525   2.854   7.820 -0.0403  0.3096 -0.3370
  185PVA    H8731425   1.555   2.831   7.718  2.6112  2.0152 -0.0424
  185PVA    O1531426   1.513   2.987   7.818  1.5919  1.1798  0.6567
  185PVA    H8831427   1.511   3.007   7.722 -3.7012  0.7859  0.3969
  185PVA    C4531428   1.634   2.802   7.927  0.8125 -1.2981 -0.6727
  185PVA    H8931429   1.672   2.709   7.885  1.1634 -0.4928 -2.2239
  185PVA    H9031430   1.588   2.800   8.026  0.0148 -0.3631 -0.9976
  185PVA    C4631431   1.767   2.885   7.930  0.3708 -0.2448  0.0929
  185PVA    H9131432   1.844   2.817   7.892 -1.7206 -0.9916 -3.2575
  185PVA    H9231433   1.770   2.972   7.862  2.9372  0.3657  0.8664
  185PVA    C4731434   1.810   2.964   8.057  0.9079 -0.6996 -0.4117
  185PVA    H9331435   1.749   3.055   8.049  1.0439 -0.6076 -0.4049
  185PVA    O1631436   1.775   2.886   0.070  0.1511  0.0209 -0.4065
  185PVA    H9431437   1.844   2.818   0.074  1.5804  1.4634  1.0554
  185PVA    C4831438   1.968   3.029   8.058  0.2463  1.0212  0.6407
  185PVA    H9531439   2.039   2.946   8.060 -0.7543  0.0973 -0.8093
  185PVA    H9631440   1.987   3.085   7.965  0.0667 -1.5244 -1.0188
  185PVA    C4931441   1.989   3.137   0.073  1.0820 -0.0091  0.2972
  185PVA    H9731442   1.933   3.119   0.165  2.1529 -0.2312  0.9163
  185PVA    H9831443   1.960   3.234   0.032  3.1930  0.6936  0.3392
  185PVA    C5031444   2.137   3.156   0.131 -0.0197 -0.9524 -0.4323
  185PVA    H9931445   2.193   3.063   0.147  2.0315  0.6736  3.3238
  185PVA    O1731446   2.205   3.247   0.042  0.3858  0.1743 -0.5180
  185PVA   H10031447   2.153   3.328   0.031  0.4991  0.2847 -0.2562
  185PVA    C5131448   2.150   3.207   0.278 -0.7499 -0.6750  0.0386
  185PVA   H10131449   2.061   3.172   0.331  2.0351 -4.6514  2.6642
  185PVA   H10231450   2.154   3.315   0.294 -1.9766 -0.6784  0.4348
  186PVA     C131451   5.048   5.135   5.261  0.5276 -1.1063 -0.7199
  186PVA     H131452   5.043   5.241   5.235  2.5053 -0.0731  2.5542
  186PVA     H231453   4.995   5.121   5.357  1.3968  0.5793  0.0322
  186PVA     C231454   4.981   5.050   5.153  0.1279  0.0914  0.4015
  186PVA     H331455   5.041   5.036   5.062 -2.1748  1.5705 -1.4636
  186PVA     O131456   4.948   4.925   5.210 -0.7546  0.5943 -0.1273
  186PVA     H431457   5.015   4.874   5.162 -0.0170  0.6022  0.8724
  186PVA     C331458   4.848   5.115   5.080  0.2779 -0.0379  0.3769
  186PVA     H531459   4.760   5.141   5.139  1.9463  0.8493  2.6055
  186PVA     H631460   4.882   5.215   5.050 -0.0350 -0.2949 -0.9178
  186PVA     C431461   4.783   5.039   4.952  0.5974 -0.2970  0.5196
  186PVA     H731462   4.703   4.975   4.991  1.5868 -3.4285 -2.1018
  186PVA     H831463   4.851   4.966   4.907 -0.8395  0.1096 -2.5743
  186PVA     C531464   4.713   5.116   4.834  0.2204 -0.6630 -0.2592
  186PVA     H931465   4.659   5.202   4.875  1.6792 -0.0416  0.4224
  186PVA     O231466   4.820   5.181   4.766 -0.3029  0.5500 -0.4954
  186PVA    H1031467   4.843   5.262   4.815 -1.5750 -1.2933  3.6650
  186PVA     C631468   4.619   5.020   4.743  0.2341 -0.4872 -1.1452
  186PVA    H1131469   4.694   4.982   4.672  2.5073  2.4317 -0.4979
  186PVA    H1231470   4.563   4.947   4.802 -0.0842 -0.5923 -1.5766
  186PVA     C731471   4.509   5.105   4.660 -0.8246  0.7280 -0.3531
  186PVA    H1331472   4.462   5.157   4.744  0.1756 -1.7937  1.8954
  186PVA    H1431473   4.569   5.182   4.609  2.1098 -0.9976  0.2576
  186PVA     C831474   4.420   5.023   4.557 -0.5010 -0.2209 -0.3056
  186PVA    H1531475   4.454   4.938   4.497  2.6904  2.0641 -2.0720
  186PVA     O331476   4.303   4.965   4.621 -0.6731  0.8997 -0.9996
  186PVA    H1631477   4.326   4.970   4.716 -3.7873  1.0006 -0.1581
  186PVA     C931478   4.375   5.122   4.451  0.9151  0.9889  0.4255
  186PVA    H1731479   4.450   5.170   4.387 -0.8282  0.5793 -2.1070
  186PVA    H1831480   4.335   5.202   4.515 -0.8910  1.1164 -0.8018
  186PVA    C1031481   4.260   5.062   4.347  0.4969  0.1840 -0.3950
  186PVA    H1931482   4.314   4.990   4.283  0.4195 -2.0599  1.9111
  186PVA    H2031483   4.195   4.994   4.403  2.4563 -2.2086 -0.8182
  186PVA    C1131484   4.183   5.170   4.263 -1.0317  0.7815 -0.5390
  186PVA    H2131485   4.253   5.241   4.217  0.2213  0.1345  0.3177
  186PVA     O431486   4.125   5.257   4.364  0.5716  0.1164  0.8575
  186PVA    H2231487   4.193   5.256   4.434  1.0679 -3.7296  0.5227
  186PVA    C1231488   4.082   5.103   4.165  0.3204  1.0057 -0.2079
  186PVA    H2331489   4.099   4.995   4.161  1.5581  1.2224 -2.0074
  186PVA    H2431490   3.983   5.118   4.209 -0.3158 -0.5953 -1.0327
  186PVA    C1331491   4.062   5.158   4.019 -0.3191 -0.3426 -0.8388
  186PVA    H2531492   4.132   5.108   3.951 -0.0018 -0.2812 -0.5623
  186PVA    H2631493   4.076   5.266   4.013  0.8612 -0.3274  1.2414
  186PVA    C1431494   3.921   5.127   3.969  0.4531  0.7187  0.1898
  186PVA    H2731495   3.897   5.020   3.973  3.7158 -0.1965 -1.0469
  186PVA     O531496   3.834   5.219   4.039 -0.9362 -0.1945 -0.3955
  186PVA    H2831497   3.912   5.267   4.072 -2.1200  1.9122 -0.5240
  186PVA    C1531498   3.888   5.159   3.815  0.1774  0.2168 -0.6642
  186PVA    H2931499   3.906   5.265   3.793 -0.1135 -0.1109 -2.6079
  186PVA    H3031500   3.967   5.112   3.755  1.7491  0.2329  1.2911
  186PVA    C1631501   3.743   5.109   3.776 -0.1810  0.2398 -1.0821
  186PVA    H3131502   3.668   5.189   3.777 -1.7255 -1.1440 -0.7782
  186PVA    H3231503   3.703   5.039   3.851  2.0692  1.7630  1.7228
  186PVA    C1731504   3.715   5.049   3.634 -0.1544  0.0089  0.8039
  186PVA    H3331505   3.742   5.147   3.591 -4.2913  1.4647  1.0883
  186PVA     O631506   3.800   4.938   3.602  0.5595 -0.2279 -0.6161
  186PVA    H3431507   3.892   4.954   3.629  0.2004 -2.6515  2.6056
  186PVA    C1831508   3.563   5.022   3.588 -0.0078 -0.0950  0.2109
  186PVA    H3531509   3.500   4.999   3.675  0.2123 -2.5148 -0.2019
  186PVA    H3631510   3.526   5.114   3.540 -1.5075 -0.3773  0.7510
  186PVA    C1931511   3.536   4.907   3.474  0.7455 -0.6340  0.4123
  186PVA    H3731512   3.585   4.937   3.380  0.5572  2.4575  1.1633
  186PVA    H3831513   3.573   4.810   3.510  1.7055 -1.2978 -2.1534
  186PVA    C2031514   3.387   4.871   3.431  0.0812 -0.4448 -0.4512
  186PVA    H3931515   3.337   4.808   3.505 -0.9590 -0.1689 -0.9127
  186PVA     O731516   3.316   4.997   3.431 -0.1176  0.3086  0.8400
  186PVA    H4031517   3.221   4.978   3.439  0.0514 -0.2744  1.5134
  186PVA    C2131518   3.359   4.808   3.273 -0.0037  0.3000 -1.0231
  186PVA    H4131519   3.443   4.739   3.261 -1.1145 -2.2072  3.3658
  186PVA    H4231520   3.358   4.895   3.206  0.5136  2.7256  1.8979
  186PVA    C2231521   3.223   4.731   3.248 -0.1583  0.0960  0.0614
  186PVA    H4331522   3.133   4.781   3.286 -1.3702 -0.5009 -1.9081
  186PVA    H4431523   3.242   4.652   3.321  0.5830  0.2538  0.0431
  186PVA    C2331524   3.172   4.689   3.103 -0.4678  0.9231  0.1733
  186PVA    H4531525   3.241   4.616   3.059 -1.5340 -1.0043  1.5788
  186PVA     O831526   3.051   4.621   3.121  0.9768 -0.0658  1.0493
  186PVA    H4631527   3.074   4.528   3.102  1.9939  0.5925 -1.3902
  186PVA    C2431528   3.149   4.797   2.987 -1.3468  0.6466 -1.3767
  186PVA    H4731529   3.224   4.875   3.006 -0.2576 -0.6519 -0.0717
  186PVA    H4831530   3.061   4.855   3.019 -1.1186 -0.2709  1.1730
  186PVA    C2531531   3.115   4.756   2.849  0.2075  0.2768 -0.3175
  186PVA    H4931532   3.190   4.682   2.817 -0.1232 -0.2443  0.0999
  186PVA    H5031533   3.013   4.717   2.839  0.9889 -3.0426  2.6359
  186PVA    C2631534   3.125   4.870   2.741  0.2910  0.3663 -0.3962
  186PVA    H5131535   3.074   4.953   2.792  0.9542 -0.4631  1.7517
  186PVA     O931536   3.259   4.890   2.719 -0.0452  0.2512 -0.4568
  186PVA    H5231537   3.288   4.836   2.644 -0.9950 -1.1429  0.1301
  186PVA    C2731538   3.064   4.843   2.597 -0.3365 -0.8570 -0.8584
  186PVA    H5331539   2.958   4.827   2.617 -1.5370 -0.4384 -5.6794
  186PVA    H5431540   3.085   4.743   2.556 -3.4878 -0.5352 -3.6897
  186PVA    C2831541   3.079   4.945   2.485 -0.4741 -0.5001  1.0260
  186PVA    H5531542   3.187   4.952   2.464 -1.2012  0.3905 -3.3681
  186PVA    H5631543   3.040   5.045   2.505  3.6308  2.3581 -3.0527
  186PVA    C2931544   3.016   4.884   2.353 -0.6039 -0.6147 -0.1551
  186PVA    H5731545   3.056   4.784   2.329 -1.0086 -1.3359  1.9576
  186PVA    O1031546   3.073   4.975   2.255  0.0881  1.2436  1.1987
  186PVA    H5831547   3.000   4.985   2.192  0.0559 -1.0577  0.8176
  186PVA    C3031548   2.856   4.884   2.329  1.3181  0.2655 -0.0667
  186PVA    H5931549   2.826   4.988   2.345  2.1228  0.2517  1.7639
  186PVA    H6031550   2.802   4.838   2.413  3.3287  1.0468  1.7426
  186PVA    C3131551   2.810   4.826   2.188 -0.5674 -1.3246  0.4803
  186PVA    H6131552   2.900   4.773   2.154  0.1868  1.1462 -1.7299
  186PVA    H6231553   2.789   4.918   2.132  1.4163  0.5809  2.6434
  186PVA    C3231554   2.694   4.727   2.185  0.1959  1.3943  0.7474
  186PVA    H6331555   2.689   4.680   2.284 -2.2231  2.3868  1.1473
  186PVA    O1131556   2.575   4.808   2.162 -0.3402 -0.3422 -0.2537
  186PVA    H6431557   2.523   4.779   2.086  1.0015 -2.0467 -0.5691
  186PVA    C3331558   2.694   4.601   2.100 -0.6151 -0.6592  0.0224
  186PVA    H6531559   2.666   4.517   2.165  0.6510 -1.6916 -0.7433
  186PVA    H6631560   2.793   4.592   2.054  1.3299  3.4433  2.7496
  186PVA    C3431561   2.591   4.580   1.986 -0.6108 -0.3242  0.0734
  186PVA    H6731562   2.491   4.569   2.030 -0.2949 -1.0929  0.6168
  186PVA    H6831563   2.597   4.675   1.931 -0.5643 -0.0899  0.4814
  186PVA    C3531564   2.642   4.464   1.886 -0.1252  0.2882  0.1254
  186PVA    H6931565   2.751   4.479   1.884 -0.0191 -0.5646 -1.1761
  186PVA    O1231566   2.617   4.351   1.957 -0.4811  0.1078 -0.5061
  186PVA    H7031567   2.641   4.281   1.894  0.3889 -0.0151 -0.0553
  186PVA    C3631568   2.594   4.458   1.735 -0.5045 -0.6962  0.0889
  186PVA    H7131569   2.489   4.428   1.747 -1.5407  2.4773 -0.0586
  186PVA    H7231570   2.584   4.555   1.684  2.2336  0.8651  2.1985
  186PVA    C3731571   2.670   4.375   1.622 -0.3327 -0.2132 -1.7203
  186PVA    H7331572   2.613   4.284   1.601 -0.4341 -0.4492 -0.5408
  186PVA    H7431573   2.769   4.333   1.647 -0.7530 -0.6630 -0.7463
  186PVA    C3831574   2.695   4.451   1.484 -0.0630 -0.1747  1.1537
  186PVA    H7531575   2.602   4.487   1.437 -0.4370  1.9661  3.3426
  186PVA    O1331576   2.799   4.566   1.500  0.5033 -0.4273  0.7089
  186PVA    H7631577   2.770   4.607   1.583  1.1799  2.6387 -0.4312
  186PVA    C3931578   2.736   4.354   1.368 -0.6114 -0.1405  0.0184
  186PVA    H7731579   2.843   4.335   1.383 -0.4743  1.2456  0.9648
  186PVA    H7831580   2.684   4.258   1.370 -0.2242 -0.3457  0.6101
  186PVA    C4031581   2.725   4.410   1.221  1.0187 -0.0720 -0.2005
  186PVA    H7931582   2.763   4.513   1.228 -1.7204  0.9787  1.0480
  186PVA    H8031583   2.620   4.423   1.191  1.2538 -0.1304 -1.0693
  186PVA    C4131584   2.804   4.359   1.100  0.6150  0.2005 -0.7016
  186PVA    H8131585   2.776   4.428   1.019 -1.0827  3.9024  2.7450
  186PVA    O1431586   2.939   4.381   1.129  0.3034 -0.4438 -0.1758
  186PVA    H8231587   2.960   4.359   1.037  1.1868 -3.0142  0.5397
  186PVA    C4231588   2.781   4.205   1.046  0.7269 -0.0895 -0.4228
  186PVA    H8331589   2.823   4.158   1.136 -0.5660 -0.7332 -0.1343
  186PVA    H8431590   2.672   4.196   1.050  0.5688  1.7183 -0.1080
  186PVA    C4331591   2.863   4.175   0.913  0.1527 -0.8369 -0.4905
  186PVA    H8531592   2.971   4.164   0.932  0.7521  3.4071 -0.2941
  186PVA    H8631593   2.846   4.254   0.839 -1.3309 -2.8158 -2.3586
  186PVA    C4431594   2.824   4.039   0.836 -0.3344 -0.3095  0.4114
  186PVA    H8731595   2.822   3.961   0.912  1.0288 -3.3245 -2.3984
  186PVA    O1531596   2.708   4.064   0.766  0.6452  0.4159  1.3280
  186PVA    H8831597   2.735   4.118   0.690  2.3467 -1.0375  0.8230
  186PVA    C4531598   2.930   3.971   0.746  0.3083 -0.0503  0.4941
  186PVA    H8931599   2.926   4.016   0.646  0.8975 -0.4433  0.2894
  186PVA    H9031600   3.030   4.000   0.778  0.8551  0.4130 -1.4731
  186PVA    C4631601   2.931   3.818   0.715 -0.0075  0.5808  0.5067
  186PVA    H9131602   2.985   3.812   0.619 -0.5378  3.5262 -0.0567
  186PVA    H9231603   2.993   3.773   0.793 -0.8931  2.1372  2.1712
  186PVA    C4731604   2.790   3.756   0.694  0.7134  0.1486  1.1123
  186PVA    H9331605   2.739   3.792   0.784 -0.4682 -1.1887  1.0053
  186PVA    O1631606   2.735   3.821   0.575 -0.7248 -0.3246  0.4760
  186PVA    H9431607   2.759   3.750   0.513 -2.5719 -4.2704  3.7763
  186PVA    C4831608   2.800   3.601   0.686  2.1638  0.0275 -0.0777
  186PVA    H9531609   2.845   3.566   0.593  0.7551 -3.0506  0.2773
  186PVA    H9631610   2.873   3.567   0.761  1.1136  1.1953  1.5590
  186PVA    C4931611   2.663   3.518   0.690  0.2187 -0.5975  0.1206
  186PVA    H9731612   2.613   3.548   0.782  1.3181 -1.3939  1.0039
  186PVA    H9831613   2.595   3.556   0.612  1.6452 -3.8549 -3.0292
  186PVA    C5031614   2.649   3.363   0.670  0.4003 -0.0553  0.8862
  186PVA    H9931615   2.696   3.333   0.765  0.1026  0.6185  1.2477
  186PVA    O1731616   2.726   3.321   0.567  0.1526  0.0815  0.7467
  186PVA   H10031617   2.703   3.383   0.496 -4.5771 -1.9490  0.1367
  186PVA    C5131618   2.495   3.318   0.648  0.5422  0.3553 -0.3164
  186PVA   H10131619   2.425   3.402   0.664 -0.0429 -0.1674 -0.0589
  186PVA   H10231620   2.464   3.257   0.734  1.0195  0.1784 -0.2687
  187PVA     C131621   5.529   5.303   5.208  0.7592 -0.9788 -0.9924
  187PVA     H131622   5.534   5.280   5.101 -0.3837  1.0757 -1.5443
  187PVA     H231623   5.471   5.396   5.200 -0.9008 -1.8476  0.2413
  187PVA     C231624   5.679   5.335   5.261  0.4470 -0.1916 -0.5008
  187PVA     H331625   5.729   5.243   5.228  3.1394  1.2397 -0.7162
  187PVA     O131626   5.683   5.343   5.412  0.4534 -0.9379  0.8565
  187PVA     H431627   5.604   5.296   5.445 -1.2688  1.5290  0.5496
  187PVA     C331628   5.735   5.468   5.205  0.3068 -0.1998 -0.3859
  187PVA     H531629   5.754   5.455   5.098  0.0843 -2.4760 -0.2071
  187PVA     H631630   5.661   5.541   5.237 -2.8730 -3.2537 -0.1922
  187PVA     C431631   5.881   5.522   5.268  0.6401  0.9309 -0.0417
  187PVA     H731632   5.871   5.535   5.377 -2.8592  3.1449 -0.4634
  187PVA     H831633   5.959   5.464   5.216  0.0717 -1.4153  1.5363
  187PVA     C531634   5.920   5.668   5.233  0.3430  0.2732 -0.8043
  187PVA     H931635   5.941   5.668   5.126  1.3678 -0.7149 -0.6227
  187PVA     O231636   5.815   5.756   5.274 -0.0705 -0.3881 -0.7505
  187PVA    H1031637   5.826   5.766   5.370  2.0976  2.8541 -1.1983
  187PVA     C631638   6.046   5.738   5.299  1.1880 -0.4217  0.3686
  187PVA    H1131639   6.048   5.707   5.405  0.2787 -0.9855  0.2263
  187PVA    H1231640   6.118   5.681   5.240  1.3147  0.4713 -0.3544
  187PVA     C731641   6.069   5.896   5.267 -0.7007 -0.2977  0.1024
  187PVA    H1331642   5.998   5.959   5.321 -0.6991  0.3127 -0.5942
  187PVA    H1431643   6.045   5.933   5.167 -3.0173  1.2153  1.1334
  187PVA     C831644   6.207   5.948   5.307 -0.2520  0.7635  0.1642
  187PVA    H1531645   6.248   5.872   5.374 -0.2487  0.0273 -0.6541
  187PVA     O331646   6.209   6.069   5.387 -0.0254 -0.4109 -0.5114
  187PVA    H1631647   6.123   6.075   5.433  0.7288 -0.7261  0.9944
  187PVA     C931648   6.285   5.966   5.174 -0.8715  0.1657 -0.1751
  187PVA    H1731649   6.252   6.059   5.126  1.7166  0.9342 -0.6361
  187PVA    H1831650   6.269   5.887   5.100 -0.2085 -3.3979  3.2181
  187PVA    C1031651   6.435   5.995   5.211 -0.7879  0.0752  0.2162
  187PVA    H1931652   6.474   5.910   5.269  0.4671 -0.0857 -0.8130
  187PVA    H2031653   6.431   6.082   5.278 -0.8518  0.9305 -0.8686
  187PVA    C1131654   6.530   6.026   5.094 -0.8871 -0.3165 -0.0035
  187PVA    H2131655   6.540   5.957   5.010  4.8738  0.2924 -0.2111
  187PVA     O431656   6.497   6.156   5.048  0.7775 -0.3083 -0.2974
  187PVA    H2231657   6.580   6.208   5.046 -0.4176  1.8123  1.1452
  187PVA    C1231658   6.674   6.026   5.140 -0.1771  0.5188 -0.4374
  187PVA    H2331659   6.689   6.079   5.235  3.0250  0.9095 -1.0502
  187PVA    H2431660   6.694   5.920   5.160 -2.1135 -0.7039 -4.0069
  187PVA    C1331661   6.777   6.070   5.023 -0.2966 -1.0789 -0.1740
  187PVA    H2531662   6.777   6.179   5.027  0.1689 -1.1099  1.2052
  187PVA    H2631663   6.743   6.053   4.920 -1.8002 -0.4533  0.1905
  187PVA    C1431664   6.924   6.004   5.052 -0.3904  1.0609 -0.3401
  187PVA    H2731665   6.932   6.014   5.161 -1.1708  1.1920 -0.2845
  187PVA     O531666   6.947   5.871   4.992  1.5825 -0.1977  0.5033
  187PVA    H2831667   7.020   5.881   4.929  2.4708 -0.5379  1.4433
  187PVA    C1531668   7.048   6.078   4.998 -0.4242  0.6888  0.8371
  187PVA    H2931669   7.108   6.077   5.090  1.4544  1.0131 -0.3412
  187PVA    H3031670   7.024   6.184   4.982 -0.3757  0.7501  1.1669
  187PVA    C1631671   7.152   6.010   4.882  0.0326 -0.6127  0.4026
  187PVA    H3131672   7.208   5.933   4.936  2.5730  2.9157  3.3121
  187PVA    H3231673   7.091   5.965   4.802 -4.5142  4.5442  0.4007
  187PVA    C1731674   7.263   6.109   4.852  0.2003  0.4008  1.4105
  187PVA    H3331675   7.222   6.207   4.878 -1.3039  0.8151 -1.9441
  187PVA     O631676   7.374   6.069   4.940  0.1252  0.4014  1.1393
  187PVA    H3431677   7.434   6.024   4.878 -0.6534 -0.5013  1.0170
  187PVA    C1831678   7.323   6.131   4.709 -1.3121  0.4795  0.8533
  187PVA    H3531679   7.419   6.185   4.712 -2.0938  1.9662  0.3488
  187PVA    H3631680   7.351   6.035   4.664 -0.0661  1.7638 -1.2743
  187PVA    C1931681   7.236   6.196   4.608  0.5333 -0.5877  0.3783
  187PVA    H3731682   7.258   6.303   4.614 -0.2500 -0.4329  0.6737
  187PVA    H3831683   7.127   6.187   4.620  0.0940 -0.6803 -2.8046
  187PVA    C2031684   7.295   6.179   4.471 -0.1985 -0.5973 -0.6566
  187PVA    H3931685   7.405   6.179   4.462 -0.2971 -0.1186 -2.0801
  187PVA     O731686   7.242   6.060   4.422  0.3236 -0.7961  0.4311
  187PVA    H4031687   7.292   5.981   4.449  2.2836 -0.5818 -2.2325
  187PVA    C2131688   7.244   6.289   4.371  0.4258 -0.4440 -0.0643
  187PVA    H4131689   7.217   6.240   4.277 -0.8587  3.9200 -2.2000
  187PVA    H4231690   7.338   6.340   4.345  0.1679  1.1364  1.8767
  187PVA    C2231691   7.134   6.405   4.423 -0.8680 -0.6728 -0.3591
  187PVA    H4331692   7.050   6.354   4.471 -1.8886  1.4870  0.2866
  187PVA    H4431693   7.184   6.475   4.491  2.8991  1.8136 -5.0667
  187PVA    C2331694   7.089   6.484   4.304  1.8218  0.0567 -0.0935
  187PVA    H4531695   7.166   6.523   4.237  2.8450  0.2757  1.1618
  187PVA     O831696   7.004   6.389   4.236  0.0835  0.9302 -0.2885
  187PVA    H4631697   7.033   6.296   4.233  2.1723  1.5087  0.7911
  187PVA    C2431698   6.999   6.612   4.337  0.6346 -0.7174  0.4567
  187PVA    H4731699   7.052   6.702   4.304  1.0922 -0.4154  1.9525
  187PVA    H4831700   6.915   6.593   4.269  2.9691 -2.4513 -2.1800
  187PVA    C2531701   6.952   6.631   4.481  0.2596 -0.0008  0.8419
  187PVA    H4931702   7.034   6.642   4.554  1.4354  0.1349 -0.4500
  187PVA    H5031703   6.893   6.549   4.523  3.1350 -1.7749  1.7494
  187PVA    C2631704   6.864   6.754   4.482 -0.5354  0.9991  0.2099
  187PVA    H5131705   6.776   6.748   4.417 -2.8393  2.8330  2.9389
  187PVA     O931706   6.928   6.876   4.430 -0.1983  0.1451  0.4843
  187PVA    H5231707   6.870   6.909   4.359  1.8124  1.7095 -0.5542
  187PVA    C2731708   6.817   6.803   4.621 -1.6867  0.4556 -1.0265
  187PVA    H5331709   6.751   6.735   4.677  1.1953 -2.1990 -0.5746
  187PVA    H5431710   6.756   6.894   4.611 -0.1729  1.5511 -0.6553
  187PVA    C2831711   6.928   6.826   4.726 -0.2073  0.1018 -0.0263
  187PVA    H5531712   6.975   6.727   4.729 -0.3468 -0.0025  3.6475
  187PVA    H5631713   7.005   6.897   4.694  0.3787 -1.6071 -2.6549
  187PVA    C2931714   6.874   6.853   4.868  0.2839 -0.2905 -0.1526
  187PVA    H5731715   6.852   6.753   4.907  1.4187 -0.3396  0.3982
  187PVA    O1031716   6.736   6.915   4.868 -0.0308  0.9961  0.7234
  187PVA    H5831717   6.752   7.003   4.829 -2.1722  1.4751  0.8178
  187PVA    C3031718   6.963   6.943   4.960 -0.4886  0.8823  0.2439
  187PVA    H5931719   7.062   6.913   4.924 -1.4908  0.6164 -2.6006
  187PVA    H6031720   6.939   7.047   4.936 -4.4898  0.5270  1.8564
  187PVA    C3131721   6.954   6.909   5.114 -0.6338 -0.2822 -0.6030
  187PVA    H6131722   6.951   6.800   5.127  1.0220 -0.9292 -4.3435
  187PVA    H6231723   6.855   6.948   5.141 -0.2597  0.1215  0.2341
  187PVA    C3231724   7.032   6.993   5.230  0.9832  1.2853 -1.0625
  187PVA    H6331725   7.002   7.098   5.221 -2.7374  0.9371  3.4859
  187PVA    O1131726   7.177   7.002   5.213 -0.7701  0.6539 -0.0382
  187PVA    H6431727   7.217   6.948   5.284 -2.5766  0.9874  1.3189
  187PVA    C3331728   7.010   6.939   5.384 -0.0648 -0.5611 -0.6893
  187PVA    H6531729   7.110   6.941   5.427 -1.0044  1.9701  1.6765
  187PVA    H6631730   6.980   6.833   5.391 -0.6472 -0.2865  2.5654
  187PVA    C3431731   6.912   7.028   5.480 -0.1578  0.3458  0.0423
  187PVA    H6731732   6.913   7.133   5.449 -3.9913 -0.0662 -2.0682
  187PVA    H6831733   6.814   6.984   5.458  1.4236 -4.4174  1.4516
  187PVA    C3531734   6.936   7.003   5.642  0.1168 -0.3077  1.2982
  187PVA    H6931735   7.039   7.038   5.654  1.4779 -3.5999  0.1579
  187PVA    O1231736   6.934   6.863   5.679  0.1604  0.0570 -0.5388
  187PVA    H7031737   6.974   6.801   5.616 -0.1029 -0.8058  0.1202
  187PVA    C3631738   6.849   7.102   5.719  0.4328  0.4874  0.5335
  187PVA    H7131739   6.759   7.131   5.663 -0.8765  1.8075  3.1174
  187PVA    H7231740   6.913   7.191   5.721  0.5042  0.4971 -1.1288
  187PVA    C3731741   6.829   7.053   5.866 -0.9122  0.6273  0.2070
  187PVA    H7331742   6.913   7.099   5.920 -1.9782  3.8612 -0.7158
  187PVA    H7431743   6.816   6.949   5.898  2.9120 -0.5260 -1.3579
  187PVA    C3831744   6.703   7.124   5.915  0.2646 -0.1141  0.3630
  187PVA    H7531745   6.607   7.106   5.864  1.1135  0.3542 -1.4588
  187PVA    O1331746   6.744   7.257   5.911  0.1314 -0.1225 -0.2025
  187PVA    H7631747   6.837   7.258   5.879  0.9766  1.8395  2.0437
  187PVA    C3931748   6.682   7.090   6.065 -1.0466  0.4505 -0.5789
  187PVA    H7731749   6.748   7.136   6.139 -1.4151 -3.1294  2.2837
  187PVA    H7831750   6.690   6.981   6.056 -1.7116  0.5857 -3.8078
  187PVA    C4031751   6.534   7.111   6.105  0.8556 -0.4905 -0.0746
  187PVA    H7931752   6.518   7.220   6.112  1.8849 -0.4048  1.5964
  187PVA    H8031753   6.454   7.078   6.037 -3.1779  4.9428  1.2731
  187PVA    C4131754   6.492   7.062   6.247 -1.2892 -0.1873 -0.5110
  187PVA    H8131755   6.529   6.960   6.266  2.0360  0.9278 -0.2855
  187PVA    O1431756   6.551   7.155   6.344  0.4099  0.9179 -0.4190
  187PVA    H8231757   6.645   7.170   6.323  1.1984  1.2412  2.8647
  187PVA    C4231758   6.340   7.069   6.263  1.3980  0.0855  0.2851
  187PVA    H8331759   6.323   7.030   6.364  5.2221 -0.9176  0.7071
  187PVA    H8431760   6.310   7.008   6.176  1.2145 -0.6230  0.8412
  187PVA    C4331761   6.274   7.213   6.236 -0.2251 -0.0443 -0.4050
  187PVA    H8531762   6.283   7.241   6.131  2.3811  0.5751 -0.0947
  187PVA    H8631763   6.337   7.282   6.294 -0.7089  1.6252 -1.7899
  187PVA    C4431764   6.131   7.231   6.285 -0.6763 -0.1052 -0.5077
  187PVA    H8731765   6.126   7.206   6.392  0.0306  2.7544  0.2821
  187PVA    O1531766   6.065   7.131   6.219  0.9140  0.1778 -0.6497
  187PVA    H8831767   5.999   7.089   6.276 -0.1220  1.1460 -1.1128
  187PVA    C4531768   6.079   7.369   6.267 -0.5990  0.1532 -0.8262
  187PVA    H8931769   6.055   7.392   6.163  1.3712  1.8649 -0.9737
  187PVA    H9031770   6.159   7.432   6.309 -4.5993  3.4427  2.9832
  187PVA    C4631771   5.951   7.401   6.340  0.2967  0.4850 -0.3813
  187PVA    H9131772   5.988   7.384   6.442  1.7055  2.0718 -0.5884
  187PVA    H9231773   5.860   7.342   6.323 -0.3752  0.7777  1.8468
  187PVA    C4731774   5.910   7.542   6.339 -0.2800 -0.0236  0.1533
  187PVA    H9331775   5.892   7.566   6.234  0.7146  1.9133  0.3690
  187PVA    O1631776   6.003   7.637   6.380  0.3877 -1.2673  0.3013
  187PVA    H9431777   6.091   7.597   6.388  1.1655  0.4369  0.6550
  187PVA    C4831778   5.770   7.576   6.398  0.8985  0.3368 -0.7304
  187PVA    H9531779   5.735   7.679   6.381 -1.5615 -0.7199 -2.7376
  187PVA    H9631780   5.693   7.509   6.358  2.5697 -0.7903 -2.2307
  187PVA    C4931781   5.766   7.566   6.560 -1.1463  1.7711  0.5461
  187PVA    H9731782   5.854   7.624   6.591  0.0514  0.0120  0.5889
  187PVA    H9831783   5.788   7.465   6.596 -1.0812  1.9832  1.1036
  187PVA    C5031784   5.632   7.607   6.631  1.2028 -0.1867  0.4565
  187PVA    H9931785   5.613   0.025   6.595 -2.0237 -2.1920 -4.7992
  187PVA    O1731786   5.525   7.531   6.558 -0.1985 -0.6848  0.2934
  187PVA   H10031787   5.524   7.455   6.617  7.1280  1.1531  3.8507
  187PVA    C5131788   5.625   7.589   6.782 -0.4392  0.7294  0.6267
  187PVA   H10131789   5.522   7.576   6.816 -0.7990 -1.9712 -1.1624
  187PVA   H10231790   5.680   7.501   6.818  0.9255  1.0587 -0.5609
  188PVA     C131791   2.959   3.661   7.890 -0.7766 -0.7791  0.6430
  188PVA     H131792   2.938   3.705   7.988 -0.0431 -2.9198  1.8309
  188PVA     H231793   3.009   3.564   7.907  2.3584  0.8769  1.7138
  188PVA     C231794   3.067   3.763   7.828  0.3534 -0.4211  1.0195
  188PVA     H331795   3.109   3.741   7.729  0.6326  2.9320  0.2565
  188PVA     O131796   3.005   3.892   7.825  0.7182  0.3085 -0.4807
  188PVA     H431797   2.908   3.885   7.817  0.7437 -0.2085 -0.3727
  188PVA     C331798   3.184   3.781   7.927 -0.0929 -0.1277 -1.2237
  188PVA     H531799   3.221   3.693   7.981  1.9058  1.5323  0.3160
  188PVA     H631800   3.144   3.842   8.009  0.3967  3.1967 -3.2513
  188PVA     C431801   3.309   3.859   7.882 -0.1752 -0.2859 -0.0866
  188PVA     H731802   3.333   3.847   7.775 -0.1727  1.3328 -0.3018
  188PVA     H831803   3.297   3.966   7.900 -0.3163 -0.8114  3.5138
  188PVA     C531804   3.443   3.792   7.931  0.4370 -0.7148 -0.2325
  188PVA     H931805   3.413   3.806   8.036 -0.6433 -0.3864 -0.5747
  188PVA     O231806   3.439   3.660   7.895  0.3121 -0.2390  0.7566
  188PVA    H1031807   3.466   3.604   7.970  3.2668 -0.7054 -0.5090
  188PVA     C631808   3.579   3.856   7.894 -0.4409 -0.2416 -0.8845
  188PVA    H1131809   3.584   3.850   7.785 -1.5676 -2.9085 -0.8747
  188PVA    H1231810   3.590   3.962   7.920 -1.4521 -0.3193 -0.0779
  188PVA     C731811   3.699   3.767   7.956 -1.7637 -0.3708  1.9932
  188PVA    H1331812   3.701   3.673   7.899 -2.0807 -0.6047  2.3611
  188PVA    H1431813   3.686   3.735   8.060 -0.9116 -3.5679  1.2214
  188PVA     C831814   3.844   3.840   7.936 -0.2562 -0.5690  0.7953
  188PVA    H1531815   3.828   3.923   7.867  0.2978  1.8755  3.3890
  188PVA     O331816   3.900   3.865   8.062 -0.4250 -0.8144 -0.3377
  188PVA    H1631817   3.925   3.776   8.090  1.4578  0.1382  1.2929
  188PVA     C931818   3.958   3.760   7.865 -1.5559  0.5765  0.1160
  188PVA    H1731819   3.911   3.683   7.802  0.4049  0.3778 -1.1880
  188PVA    H1831820   4.026   3.708   7.934  0.8264  1.8769 -1.1058
  188PVA    C1031821   4.059   3.846   7.775  0.0829  0.1088  0.3776
  188PVA    H1931822   3.995   3.900   7.705  2.4238 -1.0767 -2.9719
  188PVA    H2031823   4.113   3.912   7.844 -0.0634 -1.6787  2.3018
  188PVA    C1131824   4.173   3.752   7.718  0.1126 -0.3378  0.3967
  188PVA    H2131825   4.243   3.759   7.802 -0.9179 -0.3826  1.2646
  188PVA     O431826   4.147   3.612   7.696 -0.7528  0.6684 -1.0904
  188PVA    H2231827   4.178   3.584   7.783  0.5751  3.2726 -0.6451
  188PVA    C1231828   4.248   3.802   7.589  0.0348 -1.1883  1.1160
  188PVA    H2331829   4.182   3.805   7.501 -0.2695  1.4872  1.3309
  188PVA    H2431830   4.279   3.907   7.604 -0.3600 -0.9209  0.1807
  188PVA    C1331831   4.380   3.716   7.538  0.0457 -0.3095  0.4936
  188PVA    H2531832   4.346   3.612   7.544  0.6259 -0.4545  1.5663
  188PVA    H2631833   4.459   3.712   7.614 -0.3606 -0.5366  0.9099
  188PVA    C1431834   4.428   3.745   7.388 -0.1933  0.8738  0.0573
  188PVA    H2731835   4.333   3.723   7.337  0.4405  0.7570 -1.1066
  188PVA     O531836   4.458   3.876   7.370 -0.3078 -0.6976  0.2261
  188PVA    H2831837   4.519   3.883   7.446  1.8037 -2.3447 -1.1988
  188PVA    C1531838   4.551   3.667   7.322 -0.4066 -0.2200 -0.0714
  188PVA    H2931839   4.545   3.561   7.350 -0.1817 -0.4489 -0.8700
  188PVA    H3031840   4.640   3.707   7.372 -1.7972  2.0041  0.7781
  188PVA    C1631841   4.561   3.671   7.160  0.4552 -0.3912 -0.1989
  188PVA    H3131842   4.515   3.766   7.131 -3.4384 -1.8517  0.5703
  188PVA    H3231843   4.483   3.599   7.135  0.8187 -1.4278  1.4712
  188PVA    C1731844   4.687   3.648   7.073 -0.2840  0.0209 -0.1428
  188PVA    H3331845   4.731   3.553   7.105  3.0646  1.0770 -1.1654
  188PVA     O631846   4.782   3.753   7.098  0.5031  0.1036 -1.0194
  188PVA    H3431847   4.782   3.766   7.194  3.0951  2.3072 -1.2033
  188PVA    C1831848   4.669   3.622   6.920 -0.1312  0.2011 -1.1256
  188PVA    H3531849   4.625   3.522   6.911  0.4629  0.0951 -3.5712
  188PVA    H3631850   4.592   3.682   6.870 -1.2933 -0.4500 -0.1599
  188PVA    C1931851   4.788   3.638   6.824 -0.3832  0.5473 -0.6784
  188PVA    H3731852   4.869   3.585   6.874 -0.2442  1.4258  0.0425
  188PVA    H3831853   4.825   3.740   6.810 -0.0807  0.4404 -0.6520
  188PVA    C2031854   4.764   3.584   6.678  0.2213  0.3104  0.3239
  188PVA    H3931855   4.739   3.481   6.704  0.6855  0.5235  1.6908
  188PVA     O731856   4.652   3.655   6.611 -0.1638  0.7480  0.3322
  188PVA    H4031857   4.624   3.586   6.548  2.1574  2.3457 -2.7077
  188PVA    C2131858   4.890   3.583   6.587  0.3364  0.4696  0.0796
  188PVA    H4131859   4.979   3.566   6.648  0.6495 -3.8819 -1.2275
  188PVA    H4231860   4.896   3.681   6.539  0.9732 -0.3275 -1.5712
  188PVA    C2231861   4.879   3.483   6.467 -1.1764  0.0386  0.7479
  188PVA    H4331862   4.839   3.387   6.502 -4.7865  1.0744 -0.1518
  188PVA    H4431863   4.796   3.528   6.413 -2.0450  3.0425  4.2126
  188PVA    C2331864   5.008   3.454   6.376  1.0796  0.1358  0.5185
  188PVA    H4531865   5.025   3.550   6.324  1.2561 -0.7735 -1.1643
  188PVA     O831866   5.107   3.418   6.464 -0.2991 -0.2877  0.4071
  188PVA    H4631867   5.092   3.334   6.511  3.1793 -3.0521 -2.7938
  188PVA    C2431868   4.995   3.353   6.262 -0.7381 -0.6398  0.4550
  188PVA    H4731869   4.953   3.263   6.310 -4.3038  0.1398 -0.8664
  188PVA    H4831870   4.914   3.383   6.194 -0.5472  0.6486  0.7665
  188PVA    C2531871   5.115   3.313   6.167  0.3256 -0.4439 -0.8612
  188PVA    H4931872   5.205   3.302   6.228  0.4597  5.5341  0.6627
  188PVA    H5031873   5.123   3.411   6.118 -4.4661 -0.7510 -2.8513
  188PVA    C2631874   5.082   3.208   6.049  0.6635  0.3435  0.1176
  188PVA    H5131875   5.125   3.256   5.960  2.7682 -3.6034 -1.2647
  188PVA     O931876   4.953   3.225   6.007  0.5643  0.4721 -0.1535
  188PVA    H5231877   4.906   3.150   6.047  1.1200  0.6131  0.7729
  188PVA    C2731878   5.113   3.046   6.057  0.7618 -0.7481  0.1297
  188PVA    H5331879   5.140   3.027   6.162  4.6184  4.6868  0.5726
  188PVA    H5431880   5.215   3.034   6.019 -0.0111 -0.4761 -2.1478
  188PVA    C2831881   5.022   2.959   5.970 -0.5032 -0.3160  0.1687
  188PVA    H5531882   4.917   2.989   5.964 -1.2182 -2.1694  2.2118
  188PVA    H5631883   5.062   2.959   5.868 -2.8899  4.4656 -1.0775
  188PVA    C2931884   4.990   2.813   6.029 -0.0690 -0.4475 -0.2030
  188PVA    H5731885   4.947   2.819   6.129 -0.0383 -0.6856 -0.1764
  188PVA    O1031886   5.106   2.738   6.062 -0.0458 -0.3838  0.7862
  188PVA    H5831887   5.183   2.769   6.011 -1.3636  1.0247 -0.4612
  188PVA    C3031888   4.895   2.720   5.954  1.2003  0.1802 -0.5318
  188PVA    H5931889   4.825   2.783   5.898 -1.7790 -0.3412  2.2868
  188PVA    H6031890   4.956   2.679   5.873 -1.3682 -3.9471 -0.7218
  188PVA    C3131891   4.818   2.600   6.036 -0.2855  0.3079  0.6668
  188PVA    H6131892   4.753   2.638   6.116 -1.5124 -2.4468  1.0882
  188PVA    H6231893   4.890   2.539   6.092  2.3519  0.4085 -2.3010
  188PVA    C3231894   4.745   2.490   5.954  0.7029 -0.5592  0.2892
  188PVA    H6331895   4.811   2.446   5.878  1.1230  1.5812 -0.6700
  188PVA    O1131896   4.638   2.564   5.885  0.2595 -0.4160 -0.4433
  188PVA    H6431897   4.584   2.504   5.831  0.3134  1.0325 -2.2290
  188PVA    C3331898   4.686   2.380   6.053 -0.2951  0.5227  1.0075
  188PVA    H6531899   4.601   2.418   6.112 -0.4979 -4.5836  4.8155
  188PVA    H6631900   4.749   2.368   6.142 -1.3559 -7.3458  1.4879
  188PVA    C3431901   4.661   2.240   6.007  1.4212 -0.5629  0.2823
  188PVA    H6731902   4.578   2.243   5.936 -2.3587  0.5170  4.2716
  188PVA    H6831903   4.745   2.203   5.948  0.7874 -0.6128 -0.6026
  188PVA    C3531904   4.626   2.153   6.131  0.4178 -0.5334  0.0059
  188PVA    H6931905   4.640   2.213   6.222 -3.8609  1.8628 -0.6779
  188PVA    O1231906   4.496   2.099   6.116  0.1797  0.0559 -0.0185
  188PVA    H7031907   4.472   2.083   6.209  0.9572  1.4830  0.4492
  188PVA    C3631908   4.728   2.023   6.122 -0.3393 -0.8008 -0.3623
  188PVA    H7131909   4.713   1.972   6.026  1.5088 -0.4246 -0.8915
  188PVA    H7231910   4.830   2.061   6.106  1.8111 -5.8755 -0.3432
  188PVA    C3731911   4.733   1.911   6.240 -0.0105 -0.5148 -0.7339
  188PVA    H7331912   4.636   1.862   6.232  0.8747 -2.1005 -2.7141
  188PVA    H7431913   4.755   1.983   6.320  2.3632 -1.8370 -0.0899
  188PVA    C3831914   4.851   1.800   6.231 -0.2109 -1.2651 -0.1083
  188PVA    H7531915   4.938   1.834   6.174  1.2912 -3.4909  0.7006
  188PVA    O1331916   4.802   1.720   6.134 -0.5004 -0.2617  0.5622
  188PVA    H7631917   4.729   1.770   6.094 -0.5424 -1.8481 -1.4992
  188PVA    C3931918   4.890   1.729   6.364 -0.3335  0.8452  0.7336
  188PVA    H7731919   4.791   1.694   6.398 -1.4160  0.3184 -2.6084
  188PVA    H7831920   4.939   1.794   6.438 -1.1569  3.0076 -0.5351
  188PVA    C4031921   4.989   1.609   6.347  0.7547  0.3373  0.5751
  188PVA    H7931922   4.940   1.540   6.277 -1.3529  0.2781  2.0145
  188PVA    H8031923   5.083   1.646   6.303  0.4805  1.8406  1.1779
  188PVA    C4131924   5.030   1.521   6.477  0.3451  0.6471  0.2307
  188PVA    H8131925   5.091   1.589   6.537  4.7587 -3.5329  1.1213
  188PVA    O1431926   4.914   1.509   6.544  0.2382 -0.0125  0.0125
  188PVA    H8231927   4.849   1.572   6.507 -0.4495  0.5173  1.9822
  188PVA    C4231928   5.097   1.383   6.437 -0.2150 -0.5694 -0.9656
  188PVA    H8331929   5.174   1.405   6.362 -0.1866 -0.8633 -1.0239
  188PVA    H8431930   5.024   1.313   6.393 -1.1198 -1.8073  2.2039
  188PVA    C4331931   5.184   1.316   6.544  0.7974 -0.8897 -0.7173
  188PVA    H8531932   5.115   1.288   6.624  0.2359  0.2571 -0.7848
  188PVA    H8631933   5.257   1.383   6.591  1.1399 -1.6640 -0.1198
  188PVA    C4431934   5.245   1.178   6.501  0.5892 -1.2576  0.7683
  188PVA    H8731935   5.148   1.129   6.488  0.7320 -1.6182  1.0735
  188PVA    O1531936   5.289   1.179   6.369  0.7385 -0.2587 -0.9271
  188PVA    H8831937   5.386   1.176   6.376  0.6578 -3.1726  2.5313
  188PVA    C4531938   5.318   1.090   6.602  0.7269  1.0376 -0.6606
  188PVA    H8931939   5.290   1.113   6.705 -1.5217 -1.7230 -0.5289
  188PVA    H9031940   5.425   1.109   6.587  1.1900 -1.6716 -1.2470
  188PVA    C4631941   5.321   0.931   6.575  0.2862  0.4140  0.4222
  188PVA    H9131942   5.223   0.883   6.585  0.3096  0.2132 -0.2660
  188PVA    H9231943   5.360   0.920   6.473  0.8235 -1.8039  0.8108
  188PVA    C4731944   5.429   0.851   6.662 -0.4052  0.0582  0.2527
  188PVA    H9331945   5.519   0.899   6.623 -1.7428  4.0404  1.5636
  188PVA    O1631946   5.421   0.899   6.796  0.6224  0.2372  0.3318
  188PVA    H9431947   5.349   0.963   6.780 -0.4367 -0.9809  0.0085
  188PVA    C4831948   5.440   0.690   6.661 -0.0773  0.7369 -0.2338
  188PVA    H9531949   5.348   0.645   6.698 -1.6358 -0.7567 -5.1914
  188PVA    H9631950   5.452   0.627   6.572 -1.7678 -4.9540  3.0452
  188PVA    C4931951   5.546   0.625   6.761 -0.1916  1.3615  0.7804
  188PVA    H9731952   5.644   0.673   6.750  0.6886 -0.8326 -2.3741
  188PVA    H9831953   5.518   0.658   6.862 -0.9758  0.6490  0.8072
  188PVA    C5031954   5.561   0.467   6.763 -0.2457 -0.0799  0.2614
  188PVA    H9931955   5.655   0.446   6.709  0.1828 -0.1318  1.0187
  188PVA    O1731956   5.442   0.405   6.696  0.0401 -0.9522  0.0960
  188PVA   H10031957   5.477   0.408   6.605  1.6960  1.6186  0.6914
  188PVA    C5131958   5.566   0.392   6.903  0.7244  1.2594  0.3078
  188PVA   H10131959   5.474   0.347   6.941  0.5409  0.2066 -1.2791
  188PVA   H10231960   5.594   0.462   6.982 -0.7200  3.0662 -0.7043
  189PVA     C131961   2.884   3.301   7.562 -1.1343 -0.6658 -0.5157
  189PVA     H131962   2.859   3.362   7.475 -0.7209  3.4064  1.9174
  189PVA     H231963   2.993   3.311   7.568 -1.1337 -0.3408 -1.0511
  189PVA     C231964   2.833   3.153   7.517 -1.1608 -0.7723  0.1585
  189PVA     H331965   2.888   3.082   7.580 -2.8240 -0.6997  1.7891
  189PVA     O131966   2.696   3.147   7.527  0.2118  0.3674  0.0773
  189PVA     H431967   2.671   3.169   7.618  0.9830  2.0420 -0.0775
  189PVA     C331968   2.889   3.136   7.367 -0.1094  1.0668  0.3590
  189PVA     H531969   2.892   3.226   7.305 -0.6935 -1.7647 -4.2560
  189PVA     H631970   2.996   3.123   7.388 -0.4560 -1.7021  0.8271
  189PVA     C431971   2.860   3.017   7.271  0.5124 -1.1537  0.8874
  189PVA     H731972   2.926   2.934   7.301  1.4321 -0.8242 -0.1417
  189PVA     H831973   2.767   2.967   7.302 -1.5197  1.4951 -0.5605
  189PVA     C531974   2.865   3.012   7.115  0.3705  0.3649  0.2598
  189PVA     H931975   2.824   2.916   7.083  2.0588  0.9365 -4.2829
  189PVA     O231976   2.998   3.004   7.107 -0.2978  0.8466 -0.3284
  189PVA    H1031977   3.024   2.929   7.163 -1.1584  1.6380  1.2099
  189PVA     C631978   2.808   3.104   7.001 -0.2733  0.8349  0.4414
  189PVA    H1131979   2.701   3.120   7.015 -1.0528 -0.0492 -3.2435
  189PVA    H1231980   2.869   3.195   6.996  0.8135  0.0726 -2.0679
  189PVA     C731981   2.815   3.062   6.848 -0.4168  0.4875  0.0809
  189PVA    H1331982   2.890   2.983   6.840  4.5327  4.4169  2.1997
  189PVA    H1431983   2.866   3.144   6.795 -0.7158  0.3872 -0.3654
  189PVA     C831984   2.701   3.067   6.742  0.4914  0.2580  0.5947
  189PVA    H1531985   2.695   3.174   6.717 -2.9623 -0.5210 -2.8932
  189PVA     O331986   2.570   3.025   6.756 -0.0705  0.5241 -0.0633
  189PVA    H1631987   2.520   3.087   6.700  1.4609  1.9124  0.0396
  189PVA     C931988   2.752   3.039   6.589 -0.9987 -0.3822  0.6065
  189PVA    H1731989   2.857   3.014   6.608 -0.5355 -0.9298 -2.2181
  189PVA    H1831990   2.769   3.141   6.553  3.2753 -0.6625  1.3542
  189PVA    C1031991   2.673   2.949   6.488 -0.5272 -1.3147  0.4974
  189PVA    H1931992   2.582   3.008   6.469 -0.6812 -0.9897  2.1343
  189PVA    H2031993   2.640   2.853   6.529 -3.4389 -2.4549 -3.7902
  189PVA    C1131994   2.728   2.906   6.350  0.7766 -0.6707 -0.4607
  189PVA    H2131995   2.645   2.921   6.279 -0.9081 -1.8814  1.1493
  189PVA     O431996   2.820   3.002   6.318 -0.0448  1.0441  0.4383
  189PVA    H2231997   2.875   2.990   6.397 -2.2056 -2.5264  1.6048
  189PVA    C1231998   2.789   2.758   6.341 -0.8384  0.0185  0.0442
  189PVA    H2331999   2.897   2.756   6.356 -0.3886  2.9121 -2.0296
  189PVA    H2432000   2.759   2.695   6.425  0.0268  0.5907  0.8025
  189PVA    C1332001   2.756   2.672   6.213  0.4721  0.6779 -0.2384
  189PVA    H2532002   2.654   2.641   6.239  0.0488  2.0735 -0.1622
  189PVA    H2632003   2.760   2.736   6.124  0.9177 -1.6035 -1.9441
  189PVA    C1432004   2.835   2.540   6.163 -0.0429  0.2243 -0.2240
  189PVA    H2732005   2.886   2.497   6.249 -0.6965  1.5834  0.8757
  189PVA     O532006   2.935   2.591   6.068  0.3203  0.4592 -0.1433
  189PVA    H2832007   2.885   2.628   5.993  1.3115  0.7261 -0.7023
  189PVA    C1532008   2.757   2.432   6.076 -0.6768  1.3034  0.2153
  189PVA    H2932009   2.824   2.398   5.996 -1.5820 -3.1019  1.0751
  189PVA    H3032010   2.665   2.475   6.035  0.0985  0.6547 -2.3765
  189PVA    C1632011   2.729   2.287   6.140 -0.3170  0.4223 -0.0148
  189PVA    H3132012   2.826   2.258   6.183 -1.0601  1.0617  2.2584
  189PVA    H3232013   2.673   2.285   6.234 -0.0204  0.2723  0.1615
  189PVA    C1732014   2.673   2.176   6.041 -0.3885 -0.3379  0.1697
  189PVA    H3332015   2.749   2.160   5.963 -0.2398 -0.8222  0.4105
  189PVA     O632016   2.564   2.221   5.971  1.1262  1.4911 -0.8558
  189PVA    H3432017   2.610   2.273   5.903  0.8813  2.8165 -0.0337
  189PVA    C1832018   2.660   2.037   6.109  0.6131 -0.2629 -0.2917
  189PVA    H3532019   2.759   1.998   6.137  1.1235  1.4647  0.4657
  189PVA    H3632020   2.618   2.043   6.210  1.2487 -3.0234  0.2347
  189PVA    C1932021   2.589   1.912   6.048 -0.0303  0.3927  0.5738
  189PVA    H3732022   2.551   1.927   5.946  0.9502  0.8002  0.2613
  189PVA    H3832023   2.487   1.915   6.088 -0.9112  3.9227 -1.4854
  189PVA    C2032024   2.665   1.768   6.058  0.5157 -0.2880 -0.7153
  189PVA    H3932025   2.737   1.766   5.976  1.9475 -2.4663  0.4893
  189PVA     O732026   2.732   1.761   6.172 -0.1443  0.2834 -0.1878
  189PVA    H4032027   2.817   1.804   6.152  0.5326 -0.1099  1.5948
  189PVA    C2132028   2.565   1.652   6.042  0.3007  0.7801 -0.0057
  189PVA    H4132029   2.522   1.681   5.945 -0.6666 -0.3726  0.0534
  189PVA    H4232030   2.489   1.659   6.120 -2.9664 -1.7246 -2.6291
  189PVA    C2232031   2.609   1.500   6.055  0.0921  0.2180  0.0953
  189PVA    H4332032   2.665   1.450   5.975 -0.9177  0.8241 -1.0254
  189PVA    H4432033   2.682   1.492   6.136  4.3599  0.9715 -3.2601
  189PVA    C2332034   2.496   1.392   6.084  0.8667 -0.3706 -0.3012
  189PVA    H4532035   2.402   1.448   6.084  0.9350 -0.0103 -3.9160
  189PVA     O832036   2.515   1.345   6.213 -0.7087  0.1593 -0.1650
  189PVA    H4632037   2.560   1.263   6.186 -1.3666  1.2539 -6.0442
  189PVA    C2432038   2.447   1.279   5.986 -0.2096  0.6539 -0.1871
  189PVA    H4732039   2.385   1.333   5.913 -1.7662 -1.3592 -0.4243
  189PVA    H4832040   2.527   1.239   5.922  0.7763  3.3570 -0.7666
  189PVA    C2532041   2.351   1.158   6.042 -0.1329  0.4333  0.2972
  189PVA    H4932042   2.262   1.217   6.067 -0.1266  2.2902 -3.3664
  189PVA    H5032043   2.404   1.111   6.125  1.0770  2.6249  0.8471
  189PVA    C2632044   2.293   1.061   5.939 -0.4876 -0.6667  0.6106
  189PVA    H5132045   2.247   1.122   5.861 -5.0322 -3.1606  1.0271
  189PVA     O932046   2.410   0.979   5.892  0.2988 -0.8310 -0.0367
  189PVA    H5232047   2.491   1.027   5.917 -0.1849 -1.4053  3.1214
  189PVA    C2732048   2.182   0.937   5.979  0.1068  0.2098  0.0430
  189PVA    H5332049   2.111   0.983   6.049  4.5990  2.3247  3.7706
  189PVA    H5432050   2.229   0.875   6.057  2.3047  1.3159 -0.3228
  189PVA    C2832051   2.112   0.831   5.889  0.6076  0.5431 -0.1741
  189PVA    H5532052   2.050   0.883   5.815  0.2221 -2.8947 -2.4621
  189PVA    H5632053   2.188   0.787   5.825 -0.9494 -3.5120  0.4939
  189PVA    C2932054   2.009   0.734   5.961 -0.5892  0.1940 -0.2039
  189PVA    H5732055   2.070   0.694   6.043 -2.4895  0.3054  1.3139
  189PVA    O1032056   1.907   0.808   6.023 -0.6587 -0.0220 -0.0081
  189PVA    H5832057   1.865   0.853   5.947  0.8725  2.2432  0.3988
  189PVA    C3032058   1.950   0.608   5.878  0.3338 -0.0015  0.8628
  189PVA    H5932059   1.962   0.629   5.771 -0.5517 -2.4884  0.2134
  189PVA    H6032060   2.006   0.515   5.890  1.0188 -0.1449 -2.4716
  189PVA    C3132061   1.777   0.572   5.900 -0.0503 -0.8692 -0.4514
  189PVA    H6132062   1.719   0.662   5.880 -1.5123 -1.5485  0.4800
  189PVA    H6232063   1.751   0.528   5.998 -0.8456 -2.5141 -1.3543
  189PVA    C3232064   1.708   0.481   5.793  0.3777  0.3263 -0.1244
  189PVA    H6332065   1.678   0.551   5.715 -0.5109 -2.4417 -2.4463
  189PVA    O1132066   1.812   0.403   5.741  0.2642  0.4882 -0.1440
  189PVA    H6432067   1.800   0.391   5.645 -0.7589 -1.9725  0.2094
  189PVA    C3332068   1.583   0.385   5.824 -0.0055  1.4102  0.8385
  189PVA    H6532069   1.491   0.437   5.856 -1.1489 -2.1833  4.2253
  189PVA    H6632070   1.597   0.328   5.916 -0.3070  0.4104  0.2762
  189PVA    C3432071   1.542   0.267   5.708  0.6956 -0.8458  0.3273
  189PVA    H6732072   1.508   0.325   5.621 -3.2065 -0.3848  1.9497
  189PVA    H6832073   1.637   0.214   5.698  0.4246 -1.1742 -0.5927
  189PVA    C3532074   1.424   0.157   5.730 -0.4017 -0.2863 -0.0693
  189PVA    H6932075   1.334   0.210   5.764  1.7180  1.1213  4.0174
  189PVA    O1232076   1.443   0.069   5.843 -0.2615  1.5455  0.4157
  189PVA    H7032077   1.465   7.667   5.804 -3.6583  0.3216  0.8942
  189PVA    C3632078   1.402   0.063   5.597  0.4067  0.9531 -0.4956
  189PVA    H7132079   1.380   0.140   5.522  3.5733  4.3073  1.6160
  189PVA    H7232080   1.486   0.015   5.545 -1.8262 -1.2357 -2.3402
  189PVA    C3732081   1.270   7.653   5.599  0.1995  0.1962  0.8427
  189PVA    H7332082   1.194   0.047   5.589 -0.5902 -0.5245  0.9868
  189PVA    H7432083   1.237   7.596   5.687 -1.9267 -1.1495 -0.7299
  189PVA    C3832084   1.231   7.564   5.480  0.2737  0.3473 -0.0970
  189PVA    H7532085   1.246   7.629   5.393  2.9550 -2.9856 -2.4212
  189PVA    O1332086   1.318   7.457   5.459  0.0802  0.1435  0.1760
  189PVA    H7632087   1.274   7.382   5.416  1.5523  0.2704 -1.7136
  189PVA    C3932088   1.084   7.510   5.484  0.5839 -0.0223 -0.3651
  189PVA    H7732089   1.083   7.420   5.546  1.5193 -0.9336 -1.6285
  189PVA    H7832090   1.017   7.587   5.525  2.3277  2.6802 -2.1797
  189PVA    C4032091   1.018   7.486   5.341 -0.1621 -0.4824 -0.0998
  189PVA    H7932092   1.058   7.396   5.293 -1.3046 -2.3993  2.2840
  189PVA    H8032093   1.036   7.580   5.287  0.8281  0.5376  1.8716
  189PVA    C4132094   0.866   7.444   5.344  1.8258 -0.2002 -0.7613
  189PVA    H8132095   0.849   7.361   5.415  1.7047  0.7616  0.3604
  189PVA    O1432096   0.779   7.548   5.392  0.3703 -1.0204  0.7856
  189PVA    H8232097   0.800   7.570   5.484 -1.4534 -3.7627  2.0238
  189PVA    C4232098   0.811   7.410   5.193 -0.0393  0.3378 -0.6666
  189PVA    H8332099   0.850   7.495   5.138  1.7262  0.8139  1.1926
  189PVA    H8432100   0.858   7.318   5.155 -0.8121 -1.3624  2.1689
  189PVA    C4332101   0.655   7.386   5.148 -0.4109 -0.1478  0.1558
  189PVA    H8532102   0.595   7.477   5.157 -0.4534  0.2661 -3.2877
  189PVA    H8632103   0.612   7.327   5.230 -0.7021  0.3254  0.3475
  189PVA    C4432104   0.624   7.324   5.008 -0.6366  0.8164  0.6897
  189PVA    H8732105   0.682   7.378   4.931 -0.3156 -2.1719 -1.3056
  189PVA    O1532106   0.669   7.189   5.012 -0.8007 -0.8943 -0.8953
  189PVA    H8832107   0.647   7.176   5.106 -1.4881  3.2247 -0.2901
  189PVA    C4532108   0.484   7.325   4.942 -0.5075 -0.0625  0.1984
  189PVA    H8932109   0.440   7.425   4.943  1.6648  0.9871  2.2033
  189PVA    H9032110   0.422   7.256   5.001  2.8072 -2.4288  1.2520
  189PVA    C4632111   0.476   7.269   4.793  0.2598 -0.6351  0.4237
  189PVA    H9132112   0.549   7.321   4.730  0.6031  1.1133  2.1662
  189PVA    H9232113   0.518   7.171   4.769  1.9270  0.5429 -1.7786
  189PVA    C4732114   0.347   7.274   4.712  0.4790  0.2643  0.0223
  189PVA    H9332115   0.284   7.359   4.739  0.5539 -0.1880  1.7214
  189PVA    O1632116   0.247   7.172   4.756 -0.5130  0.1025  0.3936
  189PVA    H9432117   0.169   7.191   4.702 -0.5155 -4.6876 -1.8772
  189PVA    C4832118   0.366   7.264   4.550 -0.0006 -0.1082 -0.3934
  189PVA    H9532119   0.474   7.276   4.533 -0.0880  0.5424 -0.5212
  189PVA    H9632120   0.330   7.362   4.516  0.0071 -0.5870 -1.8281
  189PVA    C4932121   0.315   7.145   4.454 -0.4765 -0.5224 -0.1739
  189PVA    H9732122   0.363   7.052   4.487  2.8752  1.6597  1.6909
  189PVA    H9832123   0.207   7.145   4.471 -0.5362  3.3463  0.3816
  189PVA    C5032124   0.328   7.181   4.297  0.5415 -0.6639  0.3205
  189PVA    H9932125   0.415   7.248   4.294 -1.6308  2.2992 -1.9568
  189PVA    O1732126   0.237   7.286   4.253 -1.0679  0.9213  0.7010
  189PVA   H10032127   0.319   7.335   4.236  2.0283 -3.6264  0.7910
  189PVA    C5132128   0.348   7.060   4.195 -0.9427  0.6064 -0.2424
  189PVA   H10132129   0.373   6.964   4.242  0.2741  0.2804 -1.4706
  189PVA   H10232130   0.248   7.035   4.156 -0.9961  0.2607  0.1040
  190PVA     C132131   5.909   0.011   7.891  1.0608  0.4099 -0.0923
  190PVA     H132132   5.890   7.596   7.848 -2.1202  0.9972 -0.3195
  190PVA     H232133   5.819   0.011   7.954  2.2936 -0.6033  1.7967
  190PVA     C232134   6.047   0.015   7.960 -0.5626 -0.2494 -0.1238
  190PVA     H332135   6.039   0.091   8.039  4.9712  3.2759 -2.3207
  190PVA     O132136   6.155   0.083   7.881 -0.4510  0.2472 -0.4721
  190PVA     H432137   6.133   0.175   7.905 -3.1418 -1.1158  3.1091
  190PVA     C332138   6.091   7.564   8.031 -0.2051 -0.0359 -0.3919
  190PVA     H532139   6.048   7.479   7.976  1.2448 -1.0359 -0.0358
  190PVA     H632140   6.031   7.561   0.026 -2.9652  4.0459 -1.7872
  190PVA     C432141   6.260   7.540   8.057 -0.2252 -0.1735  0.7289
  190PVA     H732142   6.304   7.631   0.002  0.2752  0.0454 -0.2268
  190PVA     H832143   6.296   7.537   7.953 -1.4130  2.4215  0.1747
  190PVA     C532144   6.313   7.416   0.040  0.6451  0.0538 -0.4700
  190PVA     H932145   6.230   7.345   0.033  0.3144  0.5889 -3.0062
  190PVA     O232146   6.325   7.459   0.171 -0.1597  0.0892 -0.3233
  190PVA    H1032147   6.277   7.543   0.181  0.8183  0.6299 -0.0206
  190PVA     C632148   6.436   7.333   8.086 -0.0059  1.4571  0.1927
  190PVA    H1132149   6.410   7.244   8.028  0.3264  1.2349  0.3786
  190PVA    H1232150   6.501   7.379   8.010 -3.2974  2.3996 -2.3041
  190PVA     C732151   6.535   7.284   0.107 -0.2477  0.5263  1.1068
  190PVA    H1332152   6.450   7.242   0.162 -2.1778  0.6357 -1.5854
  190PVA    H1432153   6.579   7.372   0.157 -0.2364  2.2728 -1.7631
  190PVA     C832154   6.652   7.174   0.087 -1.3564  0.5988 -0.4208
  190PVA    H1532155   6.701   7.184   8.086 -0.0538 -0.7282  0.0618
  190PVA     O332156   6.589   7.052   0.079 -0.5139 -0.0128 -0.7051
  190PVA    H1632157   6.527   7.046   0.004  0.3988 -2.1582 -1.3489
  190PVA     C932158   6.760   7.170   0.210  0.6137 -0.6590  1.7058
  190PVA    H1732159   6.699   7.187   0.300 -5.6050 -0.4805 -2.0021
  190PVA    H1832160   6.826   7.256   0.193 -0.6372 -0.0921 -0.5711
  190PVA    C1032161   6.863   7.038   0.210 -0.6983 -0.6925  0.0247
  190PVA    H1932162   6.825   6.945   0.164 -1.6617 -1.8459  2.9079
  190PVA    H2032163   6.943   7.066   0.140 -0.7975  2.9890  1.1762
  190PVA    C1132164   6.919   7.021   0.355 -1.1693 -0.4645  0.1064
  190PVA    H2132165   6.998   7.093   0.379 -0.8067 -1.6528  2.7757
  190PVA     O432166   6.818   7.017   0.452 -0.2964 -0.9393 -0.5843
  190PVA    H2232167   6.773   6.933   0.430 -0.7961 -1.6263  2.5655
  190PVA    C1232168   7.016   6.892   0.362  0.4578 -0.2826  1.0443
  190PVA    H2332169   6.962   6.807   0.318  0.8594  0.8199 -1.7700
  190PVA    H2432170   7.085   6.895   0.278  0.4292  1.3440  1.0613
  190PVA    C1332171   7.077   6.827   0.494  0.3497  0.2161 -0.5094
  190PVA    H2532172   7.023   6.736   0.524  1.4365 -1.1713 -2.4624
  190PVA    H2632173   7.042   6.889   0.577  0.8484  0.4385 -0.4589
  190PVA    C1432174   7.232   6.818   0.506  1.1508  0.3828 -1.0884
  190PVA    H2732175   7.269   6.921   0.519 -3.4925  1.9599  1.8196
  190PVA     O532176   7.288   6.755   0.391 -0.0375  0.0793  0.8388
  190PVA    H2832177   7.305   6.660   0.400  5.3829  0.8516  2.3976
  190PVA    C1532178   7.297   6.754   0.642  0.1626 -0.0863  0.5422
  190PVA    H2932179   7.259   6.828   0.714  0.7903  3.4836 -2.4581
  190PVA    H3032180   7.270   6.654   0.677  3.1416 -1.6173 -1.1321
  190PVA    C1632181   7.463   6.758   0.645  0.2745  0.5571 -0.6341
  190PVA    H3132182   7.476   6.865   0.625  0.9279  1.1528  2.4225
  190PVA    H3232183   7.494   6.680   0.574  1.7163 -1.5956  2.1609
  190PVA    C1732184   7.528   6.711   0.787  1.1682 -0.5644  0.9163
  190PVA    H3332185   7.527   6.602   0.783  2.1005 -0.5656  0.6034
  190PVA     O632186   7.446   6.754   0.883 -0.4887 -0.2039 -0.7062
  190PVA    H3432187   7.471   6.841   0.917 -2.2075  0.4147 -0.9034
  190PVA    C1832188   7.677   6.745   0.842 -0.2389 -0.7256 -0.0054
  190PVA    H3532189   7.734   6.793   0.761  0.6216  1.3303  1.7404
  190PVA    H3632190   7.663   6.826   0.915 -0.7252 -0.7792 -0.0361
  190PVA    C1932191   0.000   6.627   0.890 -0.5063  0.1520 -0.8793
  190PVA    H3732192   0.096   6.623   0.837  0.0819 -0.0776  0.1648
  190PVA    H3832193   7.727   6.525   0.874  2.3125 -1.1641 -0.0847
  190PVA    C2032194   0.059   6.631   1.038 -0.6477 -0.7037  1.8565
  190PVA    H3932195   7.757   6.701   1.089  1.4182  0.6419  2.8818
  190PVA     O732196   0.184   6.685   1.053  0.8055 -0.8897 -0.5023
  190PVA    H4032197   0.191   6.741   0.973  0.5534  0.3669  0.3317
  190PVA    C2132198   0.060   6.500   1.113  0.4050  0.7927 -0.6868
  190PVA    H4132199   0.126   6.441   1.048  1.1105 -0.9643  1.4496
  190PVA    H4232200   7.737   6.436   1.104 -0.1563  0.0867  5.4150
  190PVA    C2232201   0.146   6.464   1.249  1.5348  0.2851  0.7217
  190PVA    H4332202   0.216   6.536   1.293  1.3003 -0.7810  2.9487
  190PVA    H4432203   0.219   6.390   1.216  1.4672  0.0068  1.1896
  190PVA    C2332204   0.053   6.403   1.381  0.0080 -0.3527  0.3040
  190PVA    H4532205   7.763   6.491   1.416 -2.3727 -2.3508  1.9550
  190PVA     O832206   7.749   6.287   1.329  0.5476  0.2115 -0.0151
  190PVA    H4632207   7.703   6.263   1.411  1.4099 -3.4748 -0.4416
  190PVA    C2432208   0.147   6.370   1.505  0.4831 -0.2270 -0.5864
  190PVA    H4732209   0.211   6.290   1.466 -2.2384 -3.0352  0.3576
  190PVA    H4832210   0.202   6.461   1.534 -0.6614  0.1474  0.4699
  190PVA    C2532211   0.058   6.322   1.620  0.7101 -0.5353 -0.2639
  190PVA    H4932212   0.006   6.227   1.600  1.6221 -0.7682 -1.6546
  190PVA    H5032213   7.741   6.395   1.630  4.1197  3.4974  1.3031
  190PVA    C2632214   0.107   6.314   1.773  0.1284 -0.8836  0.3144
  190PVA    H5132215   0.126   6.418   1.803  2.6928 -1.7210  1.9484
  190PVA     O932216   0.228   6.243   1.781  0.1929 -0.4920  0.6177
  190PVA    H5232217   0.285   6.317   1.754 -0.8831  1.0617  2.2934
  190PVA    C2732218   0.008   6.254   1.890 -1.2784  0.6001  0.0486
  190PVA    H5332219   7.666   6.258   1.868 -1.1972  0.1266 -0.4587
  190PVA    H5432220   0.018   6.145   1.894 -0.2966  0.7190  1.9514
  190PVA    C2832221   0.040   6.301   2.041  0.4299  0.1385  0.9747
  190PVA    H5532222   0.023   6.409   2.042 -1.6896 -0.1211 -0.4449
  190PVA    H5632223   0.148   6.282   2.045  0.4863  0.5359  1.4335
  190PVA    C2932224   7.714   6.248   2.159 -0.2798 -1.1989  0.2571
  190PVA    H5732225   7.610   6.272   2.131 -0.2834  1.0515  1.9369
  190PVA    O1032226   7.706   6.103   2.176  0.4588 -1.0338 -0.1404
  190PVA    H5832227   0.032   6.080   2.151  0.4790 -0.1364 -0.9586
  190PVA    C3032228   7.751   6.298   2.303  0.5930 -0.6347  0.8852
  190PVA    H5932229   0.052   6.227   2.354 -0.6346 -2.0863  0.5533
  190PVA    H6032230   0.035   6.395   2.306  1.0551 -0.7126 -1.7092
  190PVA    C3132231   7.643   6.294   2.409  0.9852  0.1332 -0.2614
  190PVA    H6132232   7.626   6.189   2.434  1.2398  0.0356 -0.4854
  190PVA    H6232233   7.553   6.341   2.369  0.3907 -1.8228 -1.3637
  190PVA    C3232234   7.672   6.377   2.535 -1.1859  0.4988 -0.5675
  190PVA    H6332235   7.705   6.474   2.495 -1.1220  0.0971 -1.5351
  190PVA    O1132236   0.022   6.320   2.609 -0.5432  0.1824 -0.1032
  190PVA    H6432237   0.075   6.372   2.672 -2.3648 -2.4549  3.9270
  190PVA    C3332238   7.562   6.392   2.653  0.4199 -0.4093  0.1676
  190PVA    H6532239   7.542   6.293   2.697  2.4142 -0.0930  1.9302
  190PVA    H6632240   7.464   6.389   2.603 -1.3323  0.2367  3.3067
  190PVA    C3432241   7.553   6.507   2.766 -0.9087 -0.7081  0.1038
  190PVA    H6732242   7.589   6.594   2.710 -0.3582 -1.0287 -0.0528
  190PVA    H6832243   7.632   6.492   2.841 -0.4178  1.5296  0.1128
  190PVA    C3532244   7.423   6.526   2.848  0.8243 -0.0962 -0.1279
  190PVA    H6932245   7.417   6.430   2.902 -0.1022 -1.3888 -2.3708
  190PVA    O1232246   7.320   6.505   2.761 -1.0800 -0.5260  0.5772
  190PVA    H7032247   7.350   6.570   2.694 -1.6946 -1.2349 -0.4221
  190PVA    C3632248   7.419   6.654   2.934 -0.2604 -0.0469 -1.0342
  190PVA    H7132249   7.468   6.617   3.025 -0.0600  3.6665  0.5506
  190PVA    H7232250   7.499   6.725   2.914 -0.3111 -0.0975 -1.4225
  190PVA    C3732251   7.283   6.730   2.973  0.8731 -0.4409  0.7821
  190PVA    H7332252   7.210   6.648   2.973 -0.3798  0.5157 -2.1504
  190PVA    H7432253   7.234   6.782   2.889 -2.0865 -1.5449  1.6922
  190PVA    C3832254   7.283   6.827   3.100  1.0783  0.6029  0.3061
  190PVA    H7532255   7.229   6.772   3.179  0.5395 -0.3415 -0.6862
  190PVA    O1332256   7.415   6.830   3.133 -0.0870 -0.0736  0.2696
  190PVA    H7632257   7.435   6.891   3.207 -0.4106 -0.1312  0.4061
  190PVA    C3932258   7.229   6.965   3.071  0.7121 -0.4504  0.0906
  190PVA    H7732259   7.127   6.953   3.032  0.9509  1.4621 -1.2979
  190PVA    H7832260   7.288   6.999   2.985  2.6929 -2.7231  0.4442
  190PVA    C4032261   7.202   7.076   3.183  0.9831 -0.8718  0.7848
  190PVA    H7932262   7.107   7.049   3.231 -0.5336 -0.5566 -1.8311
  190PVA    H8032263   7.290   7.061   3.247  1.5035  0.3573  0.4068
  190PVA    C4132264   7.174   7.223   3.139 -0.4156 -0.0095 -0.3612
  190PVA    H8132265   7.248   7.253   3.063 -1.2418  0.6124 -0.9334
  190PVA    O1432266   7.051   7.221   3.069 -0.0484 -0.3093  0.6430
  190PVA    H8232267   7.061   7.295   3.006  1.0392 -0.5961  0.4558
  190PVA    C4232268   7.184   7.341   3.255  0.7860 -0.9538  1.1928
  190PVA    H8332269   7.081   7.378   3.258  1.6137  1.6032  0.5517
  190PVA    H8432270   7.189   7.308   3.360  0.2919  0.4787  1.6909
  190PVA    C4332271   7.255   7.493   3.232 -0.4474  0.5811  0.7225
  190PVA    H8532272   7.244   7.521   3.127 -0.8828 -3.5592 -0.5099
  190PVA    H8632273   7.187   7.557   3.290 -1.5999 -0.5526  0.6716
  190PVA    C4432274   7.393   7.556   3.295 -0.2789  0.1677  0.3110
  190PVA    H8732275   7.393   7.572   3.403  2.1613 -3.0194  0.9477
  190PVA    O1532276   7.403   7.681   3.228  0.5895  0.0307  0.2194
  190PVA    H8832277   7.470   0.039   3.285  1.2814 -1.5024  0.5969
  190PVA    C4532278   7.542   7.498   3.276  0.3325 -0.2393 -0.3717
  190PVA    H8932279   7.576   7.515   3.173  1.3999 -1.1972 -0.2003
  190PVA    H9032280   7.548   7.391   3.250 -0.3991  0.3702 -3.3657
  190PVA    C4632281   7.650   7.552   3.372 -0.4646 -0.8596  1.0992
  190PVA    H9132282   7.682   7.649   3.331 -0.1963 -1.8414 -1.1688
  190PVA    H9232283   7.601   7.568   3.469 -0.0676 -0.2136  1.2005
  190PVA    C4732284   0.012   7.464   3.392 -0.6543  0.4754 -0.1605
  190PVA    H9332285   0.094   7.529   3.427  3.2742 -2.8257 -2.3259
  190PVA    O1632286   0.065   7.391   3.282 -0.3112 -0.5259  0.2220
  190PVA    H9432287   0.062   7.468   3.223  0.3965 -2.4237 -2.4924
  190PVA    C4832288   0.023   7.357   3.515  0.2649  1.2741 -0.3002
  190PVA    H9532289   7.745   7.399   3.606  0.0666 -0.5086  0.4654
  190PVA    H9632290   7.720   7.273   3.494  1.0103  0.8221 -0.9640
  190PVA    C4932291   0.169   7.289   3.548  0.3344  0.0193  0.4522
  190PVA    H9732292   0.199   7.234   3.458 -2.1674  1.6696 -1.5244
  190PVA    H9832293   0.245   7.368   3.562  2.8418 -2.0481 -0.6714
  190PVA    C5032294   0.157   7.185   3.666 -0.2135 -0.8857  0.1750
  190PVA    H9932295   0.138   7.236   3.761  1.6377 -0.2576  0.2439
  190PVA    O1732296   0.053   7.091   3.638 -0.4038  0.2112 -0.7363
  190PVA   H10032297   0.061   7.073   3.543  0.6072  2.0403 -1.0539
  190PVA    C5132298   0.297   7.113   3.683  0.8242  0.5174 -0.3876
  190PVA   H10132299   0.288   7.005   3.668  1.4746  0.0256  2.2569
  190PVA   H10232300   0.372   7.132   3.606  3.6710  0.5494  2.1931
  191PVA     C132301   5.790   0.496   7.724 -0.0711 -0.3741  0.0453
  191PVA     H132302   5.891   0.523   7.756  0.6055  1.8759 -3.4696
  191PVA     H232303   5.789   0.515   7.616  0.9763 -2.2097 -0.3375
  191PVA     C232304   5.687   0.595   7.796  0.7486 -0.6126 -0.4734
  191PVA     H332305   5.699   0.570   7.902  3.1133  2.7589  0.2117
  191PVA     O132306   5.554   0.574   7.734 -0.7416 -0.2065 -0.3275
  191PVA     H432307   5.524   0.664   7.712 -1.7480 -0.9620 -2.3115
  191PVA     C332308   5.720   0.758   7.781  0.5772  0.3651  0.2137
  191PVA     H532309   5.707   0.781   7.675 -1.9025 -5.5917 -1.1377
  191PVA     H632310   5.824   0.786   7.804  0.2599  0.1127  2.1805
  191PVA     C432311   5.630   0.848   7.885 -0.9843  0.5196 -1.2796
  191PVA     H732312   5.534   0.794   7.890 -1.4177  1.1695  4.2925
  191PVA     H832313   5.664   0.812   7.983 -0.8154  0.6974 -1.2726
  191PVA     C532314   5.618   1.009   7.869  0.0162  0.3813  0.3698
  191PVA     H932315   5.582   1.029   7.767  1.5850  1.0863 -0.0784
  191PVA     O232316   5.751   1.064   7.891  0.1809 -0.2054 -0.6657
  191PVA    H1032317   5.748   1.162   7.892 -5.8593  0.0440 -2.5607
  191PVA     C632318   5.511   1.085   7.962  0.1383 -0.5720  0.2677
  191PVA    H1132319   5.417   1.030   7.946 -0.7602  0.6460  1.1152
  191PVA    H1232320   5.551   1.050   8.058  3.4040 -0.6510 -0.9912
  191PVA     C732321   5.499   1.245   7.963 -1.2005 -0.0920  0.4128
  191PVA    H1332322   5.417   1.259   7.891 -3.3763 -4.7865  1.5936
  191PVA    H1432323   5.588   1.289   7.915 -1.3331 -0.3916 -0.1148
  191PVA     C832324   5.461   1.312   8.097  0.1813  1.5644 -0.4345
  191PVA    H1532325   5.547   1.337   0.063 -0.9269  1.6763  1.1039
  191PVA     O332326   5.395   1.226   0.097  0.2897 -0.4516 -0.0327
  191PVA    H1632327   5.306   1.265   0.105 -0.2460 -1.9414  2.1522
  191PVA     C932328   5.385   1.455   8.095 -0.1580  0.7708  0.8452
  191PVA    H1732329   5.333   1.464   7.999 -1.8104  0.5769  1.6838
  191PVA    H1832330   5.463   1.531   0.011  1.0967 -0.5331  1.2179
  191PVA    C1032331   5.283   1.506   0.116 -0.9369 -0.6106  1.0916
  191PVA    H1932332   5.192   1.446   0.113 -0.7269 -1.0320  2.3868
  191PVA    H2032333   5.334   1.462   0.202  0.4852  3.2453  2.4704
  191PVA    C1132334   5.252   1.660   0.138  0.9769  0.3080 -0.6252
  191PVA    H2132335   5.334   1.708   0.193  0.4094 -0.3681  0.8760
  191PVA     O432336   5.218   1.705   0.012 -0.0524 -0.3193  0.2350
  191PVA    H2232337   5.265   1.789   8.091 -0.0081 -1.2219 -5.4650
  191PVA    C1232338   5.129   1.678   0.232  0.7489 -1.0141  0.9411
  191PVA    H2332339   5.128   1.599   0.307 -0.7417 -0.7115  1.2804
  191PVA    H2432340   5.052   1.657   0.157  0.3518  4.3246 -0.6043
  191PVA    C1332341   5.083   1.808   0.316  1.2368  0.8315  0.1255
  191PVA    H2532342   5.110   1.784   0.419  4.0880  3.4475  0.1048
  191PVA    H2632343   5.165   1.875   0.291  2.1867  0.0426  1.0490
  191PVA    C1432344   4.937   1.858   0.292 -0.2205  0.3438 -0.5391
  191PVA    H2732345   4.897   1.786   0.219  1.0033 -1.4150  0.4423
  191PVA     O532346   4.943   1.981   0.234 -0.2770 -1.0485  0.0024
  191PVA    H2832347   4.901   2.047   0.291  1.7075  0.1333  0.1939
  191PVA    C1532348   4.829   1.857   0.400 -0.6836  0.1875 -0.1518
  191PVA    H2932349   4.850   1.936   0.474  2.3908  0.1276 -0.8295
  191PVA    H3032350   4.838   1.768   0.463  0.3257 -1.1481 -2.1072
  191PVA    C1632351   4.679   1.877   0.342 -0.1198  0.0858  0.3138
  191PVA    H3132352   4.678   1.930   0.246  2.0389 -2.8243 -1.4682
  191PVA    H3232353   4.651   1.777   0.306 -1.5192 -0.1473  1.9099
  191PVA    C1732354   4.566   1.891   0.456 -0.0351  0.0070 -0.7064
  191PVA    H3332355   4.552   1.792   0.501  0.5302 -0.4934 -1.6060
  191PVA     O632356   4.608   1.973   0.555  0.0502 -0.9531 -0.7730
  191PVA    H3432357   4.537   2.034   0.579  1.5801 -0.4942  3.4988
  191PVA    C1832358   4.421   1.944   0.422 -0.3755 -0.3923  0.3905
  191PVA    H3532359   4.419   2.053   0.410  0.4456 -0.1292  2.2374
  191PVA    H3632360   4.391   1.902   0.325 -0.8633  3.9080 -1.5379
  191PVA    C1932361   4.298   1.929   0.524  0.8139 -1.3598 -0.0783
  191PVA    H3732362   4.265   1.826   0.510  2.9071 -1.6980 -3.2498
  191PVA    H3832363   4.320   1.933   0.632 -0.6864  0.3240  0.2194
  191PVA    C2032364   4.160   2.016   0.513 -0.8791  0.1993 -0.6073
  191PVA    H3932365   4.206   2.107   0.473  0.8463 -1.2191 -2.0830
  191PVA     O732366   4.086   1.955   0.407  0.0314 -0.4660 -0.4846
  191PVA    H4032367   4.134   1.882   0.365  0.0447 -1.3834  1.0651
  191PVA    C2132368   4.069   2.043   0.637 -0.1105 -0.6655  0.7037
  191PVA    H4132369   4.091   1.994   0.733 -0.9129 -1.7826  0.3383
  191PVA    H4232370   3.971   1.997   0.620  0.7528 -2.1724 -0.5094
  191PVA    C2232371   4.043   2.200   0.682  0.7667  0.3661  0.0498
  191PVA    H4332372   4.034   2.195   0.791  1.8232  1.1316  0.1862
  191PVA    H4432373   4.147   2.232   0.675  0.7404  0.3733 -0.3339
  191PVA    C2332374   3.947   2.292   0.599  0.1085  1.2604  0.4656
  191PVA    H4532375   3.978   2.273   0.495 -1.5792 -2.5462  0.5203
  191PVA     O832376   3.818   2.223   0.614 -0.6617  0.0364  0.0483
  191PVA    H4632377   3.851   2.143   0.659 -0.4444  1.1903  2.0443
  191PVA    C2432378   3.933   2.447   0.633  1.2144 -1.2143 -0.5506
  191PVA    H4732379   3.825   2.467   0.634  0.8218 -3.0824  0.6693
  191PVA    H4832380   3.965   2.473   0.734 -0.6745 -2.3502  0.4036
  191PVA    C2532381   3.974   2.556   0.539 -0.3028 -0.5316  0.4902
  191PVA    H4932382   3.898   2.558   0.461 -1.4021  0.9711  1.5652
  191PVA    H5032383   4.054   2.516   0.475 -3.1536 -1.4795 -2.7938
  191PVA    C2632384   3.995   2.708   0.570 -0.9997  0.2319  0.5692
  191PVA    H5132385   3.995   2.719   0.679 -0.4796  2.2531  0.3984
  191PVA     O932386   3.883   2.771   0.523  0.2216  0.0131  0.3330
  191PVA    H5232387   3.808   2.708   0.531 -0.7063  1.3222  3.7336
  191PVA    C2732388   4.122   2.791   0.498 -0.5282 -0.5095  0.6398
  191PVA    H5332389   4.159   2.735   0.411  1.2239  0.1761  0.9093
  191PVA    H5432390   4.083   2.884   0.455 -3.5650 -2.1759 -0.5285
  191PVA    C2832391   4.234   2.860   0.585 -0.4340 -0.1219 -0.8256
  191PVA    H5532392   4.243   2.816   0.685  1.7508  0.8090 -0.5650
  191PVA    H5632393   4.201   2.962   0.609 -1.4019 -0.8910  1.3569
  191PVA    C2932394   4.381   2.887   0.520 -0.0830 -0.8818  0.3329
  191PVA    H5732395   4.389   2.994   0.495  0.0444 -0.4741  2.0004
  191PVA    O1032396   4.427   2.802   0.409  0.3383  0.2118 -0.8126
  191PVA    H5832397   4.495   2.857   0.366  1.8244 -1.4972 -0.7713
  191PVA    C3032398   4.502   2.901   0.625  1.0261  0.2255 -0.4664
  191PVA    H5932399   4.540   3.003   0.634 -0.4582  0.8891 -1.2990
  191PVA    H6032400   4.461   2.879   0.725  1.7311 -2.5546 -0.7166
  191PVA    C3132401   4.603   2.768   0.604 -0.7097  0.8892 -0.7484
  191PVA    H6132402   4.690   2.793   0.541  0.8571 -2.0698  0.0860
  191PVA    H6232403   4.567   2.682   0.547  1.3689  2.6409 -5.1529
  191PVA    C3232404   4.683   2.710   0.732  0.6562 -0.2574  0.6308
  191PVA    H6332405   4.600   2.668   0.790 -3.4634  4.4653 -1.0621
  191PVA    O1132406   4.729   2.833   0.788  0.1678 -0.3780  0.0300
  191PVA    H6432407   4.672   2.872   0.856  0.1024 -0.7890  0.2097
  191PVA    C3332408   4.800   2.601   0.704  1.8397  0.3491 -0.0361
  191PVA    H6532409   4.873   2.668   0.655  2.4028  0.4994  0.9812
  191PVA    H6632410   4.762   2.549   0.615 -2.2795  2.8715 -0.0336
  191PVA    C3432411   4.869   2.502   0.810  0.2463 -0.2568  0.2490
  191PVA    H6732412   4.955   2.459   0.758  0.6705  0.2292  0.5436
  191PVA    H6832413   4.914   2.568   0.885  2.2060  0.1429 -1.1943
  191PVA    C3532414   4.808   2.381   0.887 -0.3075  0.2674 -0.4384
  191PVA    H6932415   4.700   2.383   0.872 -0.5262  1.8821  1.1079
  191PVA    O1232416   4.832   2.408   1.028 -0.4439 -0.1404  0.6606
  191PVA    H7032417   4.929   2.416   1.040  0.8599 -1.1141 -5.5015
  191PVA    C3632418   4.864   2.230   0.845 -0.0677  0.4580 -0.5786
  191PVA    H7132419   4.968   2.230   0.882 -1.1890  2.0066  3.0763
  191PVA    H7232420   4.878   2.228   0.736 -3.4392  2.9654 -1.2212
  191PVA    C3732421   4.793   2.111   0.924  0.0057  1.0213  0.2307
  191PVA    H7332422   4.738   2.144   1.014  1.8423 -1.8718  2.6203
  191PVA    H7432423   4.863   2.064   0.994 -1.3165 -0.3777  0.6709
  191PVA    C3832424   4.713   2.007   0.831 -0.3984  0.3468  0.6719
  191PVA    H7532425   4.645   2.086   0.799 -3.0839 -1.6096  1.1848
  191PVA    O1332426   4.792   1.948   0.735  0.0962  0.3751  0.5952
  191PVA    H7632427   4.746   1.974   0.654  0.2787  0.3270  0.4742
  191PVA    C3932428   4.605   1.905   0.896 -0.6550 -0.3296  1.0339
  191PVA    H7732429   4.548   1.960   0.972 -0.8243  1.4854 -0.3420
  191PVA    H7832430   4.670   1.836   0.952  4.9743  2.7777 -0.7755
  191PVA    C4032431   4.514   1.834   0.790 -0.1671 -0.3770  0.5593
  191PVA    H7932432   4.453   1.924   0.776  1.7815  0.9962  0.3860
  191PVA    H8032433   4.581   1.794   0.713  1.0039 -2.2989  2.4555
  191PVA    C4132434   4.410   1.716   0.814  0.1169  0.0677  0.1690
  191PVA    H8132435   4.319   1.775   0.801  0.2529  1.3747  3.9613
  191PVA    O1432436   4.393   1.669   0.940  0.3777  0.1558 -1.2232
  191PVA    H8232437   4.451   1.592   0.952 -3.5413 -2.8126  0.3583
  191PVA    C4232438   4.407   1.610   0.700  0.1007  0.5114  0.2871
  191PVA    H8332439   4.491   1.636   0.634  1.2890  0.5051  1.7405
  191PVA    H8432440   4.310   1.624   0.651 -0.3567  0.3590  1.1378
  191PVA    C4332441   4.413   1.449   0.728  0.0707  0.9281 -0.4941
  191PVA    H8532442   4.330   1.423   0.796  0.5736 -3.2965 -1.2514
  191PVA    H8632443   4.504   1.430   0.787 -1.4718 -3.5229  0.8644
  191PVA    C4432444   4.410   1.358   0.602  0.4582  1.1748 -0.2145
  191PVA    H8732445   4.477   1.404   0.528  0.3008  0.7000 -0.6598
  191PVA    O1532446   4.276   1.345   0.554  0.0283 -0.1710 -0.1614
  191PVA    H8832447   4.213   1.348   0.628  0.3165 -0.1592  0.0899
  191PVA    C4532448   4.466   1.213   0.600 -0.1591  0.0165 -0.1278
  191PVA    H8932449   4.562   1.196   0.651 -1.1695 -1.5188  1.3991
  191PVA    H9032450   4.400   1.147   0.659 -1.6375  0.8396 -0.7946
  191PVA    C4632451   4.481   1.135   0.468 -1.3315 -0.0616 -0.5003
  191PVA    H9132452   4.549   1.194   0.405 -0.3049  0.0818  0.6842
  191PVA    H9232453   4.382   1.124   0.423 -1.4305  0.7660 -0.5019
  191PVA    C4732454   4.533   0.983   0.479  0.5086 -0.6940  1.0704
  191PVA    H9332455   4.471   0.952   0.564 -1.7627  4.9039  1.8828
  191PVA    O1632456   4.673   0.986   0.514 -0.0181 -0.0528 -0.2954
  191PVA    H9432457   4.696   0.990   0.419 -0.3668 -0.3534 -0.3960
  191PVA    C4832458   4.495   0.871   0.370 -0.4627  0.7557  0.1378
  191PVA    H9532459   4.390   0.874   0.339 -1.2060 -2.3726  1.8920
  191PVA    H9632460   4.567   0.877   0.288 -0.1410 -0.7918  0.2741
  191PVA    C4932461   4.521   0.717   0.428  0.3773  0.7795  0.0387
  191PVA    H9732462   4.475   0.716   0.528  1.7160 -1.7048  0.7318
  191PVA    H9832463   4.628   0.700   0.410  0.2716  0.9107 -0.7487
  191PVA    C5032464   4.438   0.602   0.348  0.2966 -0.2171  0.0786
  191PVA    H9932465   4.470   0.616   0.244  0.3100 -1.1501 -0.0487
  191PVA    O1732466   4.305   0.626   0.367 -0.7585 -0.3307 -0.1211
  191PVA   H10032467   4.289   0.611   0.462  0.5821  0.8146  0.3266
  191PVA    C5132468   4.457   0.456   0.403 -1.0144  0.5382 -0.3289
  191PVA   H10132469   4.459   0.473   0.512 -2.8670  2.3274 -0.5194
  191PVA   H10232470   4.558   0.448   0.362 -0.2058  1.9606  1.2560
  192PVA     C132471   1.383   6.602   3.724  0.3610 -0.0732 -0.0034
  192PVA     H132472   1.409   6.523   3.794 -2.7273  1.0633  2.6447
  192PVA     H232473   1.403   6.691   3.785  3.9199  2.6806 -4.4197
  192PVA     C232474   1.503   6.606   3.614 -0.1206 -1.0810  0.5667
  192PVA     H332475   1.516   6.504   3.576 -0.0777 -0.1132 -2.1939
  192PVA     O132476   1.469   6.689   3.498 -0.0515 -0.5511  0.6655
  192PVA     H432477   1.375   6.712   3.491 -0.2268  1.3027  5.5093
  192PVA     C332478   1.641   6.669   3.665 -0.1642  0.6822  1.4810
  192PVA     H532479   1.648   6.623   3.764 -1.5597 -2.8251  0.1193
  192PVA     H632480   1.629   6.777   3.680  0.6608  0.9262  0.5095
  192PVA     C432481   1.777   6.621   3.589 -0.0532  0.6457  0.2167
  192PVA     H732482   1.790   6.512   3.591  3.9451  0.8135 -3.1678
  192PVA     H832483   1.764   6.631   3.480  1.0550  1.4662  0.1449
  192PVA     C532484   1.919   6.696   3.627 -0.0219 -0.4952  0.3015
  192PVA     H932485   1.950   6.635   3.712  3.4444  0.9396  0.2353
  192PVA     O232486   1.891   6.830   3.677 -0.0760 -0.1615  0.4781
  192PVA    H1032487   1.965   6.881   3.714 -0.2331  0.1763  0.3366
  192PVA     C632488   2.056   6.676   3.541 -1.2114 -0.7660 -0.4732
  192PVA    H1132489   2.098   6.577   3.565 -0.0621 -0.2228 -0.1830
  192PVA    H1232490   2.028   6.678   3.435  0.0406  3.2145 -0.8876
  192PVA     C732491   2.189   6.779   3.558 -0.0289 -0.2267 -0.2327
  192PVA    H1332492   2.206   6.787   3.666 -0.5619 -1.3243 -0.0547
  192PVA    H1432493   2.159   6.877   3.518 -4.6311 -0.0406  2.8684
  192PVA     C832494   2.326   6.726   3.495 -0.2071  0.9705 -0.2840
  192PVA    H1532495   2.319   6.621   3.523 -4.0472  1.6049  1.7392
  192PVA     O332496   2.338   6.726   3.353  0.7919  0.5785 -0.8244
  192PVA    H1632497   2.265   6.661   3.353  0.0105  1.2701  2.5668
  192PVA     C932498   2.486   6.746   3.521  0.2774 -0.8122  0.6508
  192PVA    H1732499   2.527   6.656   3.474  0.1867  1.2511 -3.9724
  192PVA    H1832500   2.498   6.749   3.630 -0.2745 -2.1136  0.7565
  192PVA    C1032501   2.559   6.893   3.476 -0.8360 -0.4849  0.1731
  192PVA    H1932502   2.522   6.920   3.376 -1.8891  1.8969  1.1286
  192PVA    H2032503   2.514   6.973   3.537  1.3804 -0.8426  2.3933
  192PVA    C1132504   2.715   6.930   3.498  1.3088 -1.2709  0.5055
  192PVA    H2132505   2.761   6.846   3.445 -1.7266 -2.3929 -0.6144
  192PVA     O432506   2.754   6.916   3.635 -0.4527  0.2117 -0.2509
  192PVA    H2232507   2.841   6.872   3.634 -0.5374  0.0521 -0.7264
  192PVA    C1232508   2.779   7.066   3.437  0.8168  0.6330 -0.1370
  192PVA    H2332509   2.840   7.045   3.348 -0.8908  2.5038 -1.8459
  192PVA    H2432510   2.698   7.122   3.389  0.3677  0.2895  0.2124
  192PVA    C1332511   2.883   7.167   3.522  0.0553  0.2132 -0.1352
  192PVA    H2532512   2.950   7.092   3.566  0.7683 -1.8886 -4.3576
  192PVA    H2632513   2.842   7.211   3.614 -0.5233 -0.9001  0.1618
  192PVA    C1432514   2.994   7.270   3.462  0.2886 -0.1545  0.1352
  192PVA    H2732515   3.084   7.212   3.439  0.0480 -0.3538 -0.3263
  192PVA     O532516   2.953   7.324   3.330  0.4259  0.2993 -0.1456
  192PVA    H2832517   2.859   7.342   3.349  0.2221 -0.5443 -0.3192
  192PVA    C1532518   3.056   7.387   3.559  1.3395 -0.2898  1.2603
  192PVA    H2932519   3.043   7.367   3.666 -1.5090 -0.4584  0.9621
  192PVA    H3032520   2.991   7.473   3.542  2.6282  0.1019 -2.8718
  192PVA    C1632521   3.202   7.448   3.532 -0.2309  0.5152 -0.5988
  192PVA    H3132522   3.272   7.372   3.569 -0.5005 -0.0901 -1.3096
  192PVA    H3232523   3.240   7.437   3.429  1.8396  0.8512  0.0812
  192PVA    C1732524   3.240   7.593   3.575  0.9237 -1.2885  0.0394
  192PVA    H3332525   3.231   7.662   3.490  0.9599  3.4491  3.4080
  192PVA     O632526   3.155   7.641   3.679 -0.2056  0.0597 -0.5822
  192PVA    H3432527   3.224   7.651   3.747  1.2383 -2.1584 -1.6098
  192PVA    C1832528   3.390   7.619   3.635  0.8737  0.0707  0.3218
  192PVA    H3532529   3.376   7.662   3.735 -1.6408 -2.5001  1.1984
  192PVA    H3632530   3.436   7.529   3.676 -0.7678  0.6399  3.7557
  192PVA    C1932531   3.502   0.041   3.565 -0.8828  0.7270  0.7231
  192PVA    H3732532   3.533   0.027   3.461  2.1493  0.7120  1.5415
  192PVA    H3832533   3.452   0.138   3.560  1.3567  1.9039 -0.0332
  192PVA    C2032534   3.638   0.074   3.638  0.3259 -0.6669  0.5120
  192PVA    H3932535   3.638   0.025   3.736 -0.6767 -2.2094 -0.2399
  192PVA     O732536   3.636   0.221   3.654  0.3735 -0.3424 -0.4099
  192PVA    H4032537   3.711   0.260   3.607  0.6749 -0.4431 -0.0201
  192PVA    C2132538   3.772   0.033   3.556 -0.2235 -0.0005 -0.5845
  192PVA    H4132539   3.768   0.113   3.481 -1.5961 -2.0170 -2.8131
  192PVA    H4232540   3.750   7.621   3.509 -0.7382 -1.0582  1.7102
  192PVA    C2232541   3.919   0.007   3.606 -0.5479  0.3387 -0.7772
  192PVA    H4332542   3.977   0.096   3.635  3.6851 -1.4436 -2.7605
  192PVA    H4432543   3.907   7.624   3.691 -0.4041  0.6842 -0.4845
  192PVA    C2332544   4.009   7.617   3.496 -0.4067  1.2770 -1.8000
  192PVA    H4532545   3.972   7.514   3.505 -4.5841  2.7100  0.1459
  192PVA     O832546   3.981   7.665   3.364 -0.6011  0.0957  0.7995
  192PVA    H4632547   3.906   7.621   3.320 -0.1222 -0.2080  0.2751
  192PVA    C2432548   4.168   7.595   3.504 -0.7105  0.2323  0.5635
  192PVA    H4732549   4.210   0.005   3.466  2.6158 -0.6230  1.7399
  192PVA    H4832550   4.205   7.598   3.607  0.2511  0.2959  0.2310
  192PVA    C2532551   4.243   7.492   3.413  0.2082  0.0262 -0.9687
  192PVA    H4932552   4.186   7.476   3.321  1.7478 -1.1947 -1.7495
  192PVA    H5032553   4.223   7.400   3.471 -5.0843  1.9799  0.9485
  192PVA    C2632554   4.399   7.507   3.376  0.9095  0.4174  0.6423
  192PVA    H5132555   4.392   7.609   3.335  0.8524 -0.4447 -1.6340
  192PVA     O932556   4.478   7.490   3.494 -0.7267 -0.1228 -0.7836
  192PVA    H5232557   4.441   7.408   3.531 -3.9598  0.8555 -1.5740
  192PVA    C2732558   4.460   7.417   3.266 -0.3307  0.1829  0.2103
  192PVA    H5332559   4.386   7.410   3.185 -0.3740  0.4052  0.2309
  192PVA    H5432560   4.468   7.317   3.311 -3.7164 -0.3459 -0.0612
  192PVA    C2832561   4.606   7.454   3.215  1.3983  0.9748 -0.2187
  192PVA    H5532562   4.681   7.438   3.294  2.8778 -4.3640 -2.3043
  192PVA    H5632563   4.619   7.557   3.179  0.2326 -0.0692 -4.2052
  192PVA    C2932564   4.667   7.353   3.107  0.1636  0.0490  0.3650
  192PVA    H5732565   4.613   7.346   3.012  1.6391  1.9742 -0.6999
  192PVA    O1032566   4.663   7.226   3.167  0.4342 -0.0272  0.3888
  192PVA    H5832567   4.693   7.254   3.256  0.6031 -0.3864  0.4465
  192PVA    C3032568   4.816   7.372   3.040  0.6101 -0.6134  1.1841
  192PVA    H5932569   4.816   7.467   2.985  1.4398  0.1659  2.4743
  192PVA    H6032570   4.899   7.386   3.110  0.7544  0.1550  0.8732
  192PVA    C3132571   4.868   7.243   2.946  0.1183 -1.0649 -0.2978
  192PVA    H6132572   4.780   7.186   2.914 -0.6221 -0.6449  0.9583
  192PVA    H6232573   4.943   7.185   3.001  1.5940  0.9758 -0.0613
  192PVA    C3232574   4.942   7.299   2.816 -0.3695 -0.1475 -0.3006
  192PVA    H6332575   4.890   7.383   2.767  1.1722 -0.7462 -3.1949
  192PVA    O1132576   5.070   7.323   2.872 -0.8264 -0.0257  0.6980
  192PVA    H6432577   5.129   7.247   2.866  1.0487  1.4641 -1.2311
  192PVA    C3332578   4.968   7.195   2.694 -0.0765 -0.0016  0.2343
  192PVA    H6532579   4.914   7.102   2.715  2.8276 -1.9592 -0.2560
  192PVA    H6632580   5.071   7.158   2.706  0.9879  3.0715  1.7384
  192PVA    C3432581   4.960   7.250   2.546 -0.3269  0.4155 -0.0773
  192PVA    H6732582   5.052   7.310   2.534 -1.6630  2.2979 -1.4571
  192PVA    H6832583   4.884   7.329   2.547 -1.2635 -0.3839  2.6921
  192PVA    C3532584   4.936   7.155   2.423  0.5321  0.9629 -0.6794
  192PVA    H6932585   5.033   7.157   2.371  0.8711  0.5705 -0.0787
  192PVA    O1232586   4.905   7.024   2.466 -0.4790  0.1342 -0.0581
  192PVA    H7032587   4.982   7.011   2.524 -2.1240 -1.2841  1.9101
  192PVA    C3632588   4.825   7.207   2.319 -1.4403  0.3106 -0.1751
  192PVA    H7132589   4.736   7.216   2.382 -0.9472 -2.3578  1.0791
  192PVA    H7232590   4.856   7.301   2.274  1.9855 -2.0498 -3.3853
  192PVA    C3732591   4.799   7.120   2.198  0.3498 -0.7186 -0.2088
  192PVA    H7332592   4.792   7.015   2.230 -3.4137 -1.6930 -3.5632
  192PVA    H7432593   4.880   7.122   2.124 -0.9073 -0.0754 -1.6177
  192PVA    C3832594   4.662   7.160   2.115 -0.6125  0.9844 -0.2841
  192PVA    H7532595   4.678   7.269   2.107 -2.0907  1.0933 -4.0666
  192PVA    O1332596   4.551   7.142   2.203  0.2837 -1.1237 -0.3495
  192PVA    H7632597   4.508   7.058   2.228 -0.6291  0.2876  3.6066
  192PVA    C3932598   4.616   7.115   1.970 -1.1321 -0.6760  0.7562
  192PVA    H7732599   4.621   7.005   1.974  0.3847 -0.7119 -0.8259
  192PVA    H7832600   4.700   7.151   1.909  1.0791 -3.8892  1.6562
  192PVA    C4032601   4.480   7.175   1.924  1.9329 -0.4989 -0.0281
  192PVA    H7932602   4.392   7.126   1.968  0.6956  0.3582 -1.4802
  192PVA    H8032603   4.459   7.271   1.973 -3.3362 -2.1336  1.6849
  192PVA    C4132604   4.430   7.180   1.772 -0.2869 -0.5021  0.5933
  192PVA    H8132605   4.500   7.240   1.714 -1.3960  1.4276  1.1564
  192PVA    O1432606   4.427   7.051   1.731 -0.4123  0.3406 -0.3894
  192PVA    H8232607   4.333   7.025   1.729 -0.1524 -1.1603  2.4473
  192PVA    C4232608   4.292   7.253   1.740  0.1832  0.7131  0.0205
  192PVA    H8332609   4.312   7.355   1.773  1.9879  1.1569 -2.2078
  192PVA    H8432610   4.202   7.216   1.791 -0.4664  2.5192  0.2413
  192PVA    C4332611   4.262   7.258   1.576 -0.6505  0.2600  1.0261
  192PVA    H8532612   4.170   7.202   1.556 -2.1874  2.9389  0.0876
  192PVA    H8632613   4.331   7.197   1.516  0.1344  2.7042 -0.7306
  192PVA    C4432614   4.244   7.394   1.504 -0.2221 -0.6282 -1.1784
  192PVA    H8732615   4.321   7.462   1.544 -0.9202 -1.4986  1.9475
  192PVA    O1532616   4.115   7.441   1.536  0.7147 -0.1086  1.0686
  192PVA    H8832617   4.071   7.487   1.462  0.0832  0.3378  1.7077
  192PVA    C4532618   4.260   7.387   1.339  0.1050  0.2182 -0.7178
  192PVA    H8932619   4.230   7.284   1.314 -0.3490 -0.1311  1.0974
  192PVA    H9032620   4.364   7.388   1.305  0.5574  3.3632  0.3910
  192PVA    C4632621   4.179   7.489   1.246 -0.1414  0.1298 -0.6738
  192PVA    H9132622   4.092   7.430   1.213 -1.5537  3.2559 -3.1306
  192PVA    H9232623   4.146   7.575   1.307 -4.3250 -1.0289 -0.9593
  192PVA    C4732624   4.259   7.539   1.119 -0.4225 -0.2019 -1.2028
  192PVA    H9332625   4.324   7.456   1.087  3.1197  1.4254  1.0539
  192PVA    O1632626   4.364   7.620   1.175  0.2347 -0.0612 -0.2011
  192PVA    H9432627   4.351   7.614   1.271  0.7860  2.8656  0.1326
  192PVA    C4832628   4.179   7.608   1.003  0.4170 -0.1983  1.0428
  192PVA    H9532629   4.091   7.545   0.982  0.3781  0.2067 -0.0863
  192PVA    H9632630   4.163   0.016   1.058  1.7975 -0.3056  1.6580
  192PVA    C4932631   4.258   7.633   0.869 -0.2288 -0.1448  0.4248
  192PVA    H9732632   4.266   7.527   0.842 -0.9902  0.1530 -1.1136
  192PVA    H9832633   4.361   7.666   0.886 -1.2589  2.6357  1.8676
  192PVA    C5032634   4.190   0.008   0.730 -0.1003 -0.5747  1.5011
  192PVA    H9932635   4.107   7.625   0.705 -0.8091  0.4181  1.1314
  192PVA    O1732636   4.108   0.117   0.747  0.2859  0.4828 -0.1341
  192PVA   H10032637   4.152   0.188   0.798 -1.5976  1.7616 -0.1724
  192PVA    C5132638   4.275   0.042   0.599 -0.7957 -1.2938  0.1267
  192PVA   H10132639   4.306   7.636   0.547  0.5608  0.3000 -2.0039
  192PVA   H10232640   4.370   0.090   0.628 -2.8899  3.9078 -0.4949
  193PVA     C132641   0.936   6.358   3.862 -1.1232 -0.6342 -0.3212
  193PVA     H132642   0.830   6.381   3.879 -0.9594 -1.0041  1.4202
  193PVA     H232643   0.936   6.301   3.768  1.2894 -1.4148  0.0783
  193PVA     C232644   0.994   6.267   3.976  1.1507 -0.2200  0.9093
  193PVA     H332645   1.062   6.313   4.049 -0.7529  0.0665  2.5733
  193PVA     O132646   1.063   6.153   3.912 -0.0475  0.4840 -0.0328
  193PVA     H432647   1.046   6.075   3.968  3.1749  0.3361  0.9331
  193PVA     C332648   0.891   6.220   4.085  0.0736 -0.5979 -0.4949
  193PVA     H532649   0.829   6.300   4.127 -0.5811 -0.2405 -2.0325
  193PVA     H632650   0.949   6.175   4.166  1.6667 -1.2093 -1.9255
  193PVA     C432651   0.788   6.117   4.027 -1.2664  0.2937 -0.6365
  193PVA     H732652   0.758   6.150   3.927  0.3317  2.0472 -0.5984
  193PVA     H832653   0.848   6.026   4.015 -0.3189  0.9367 -0.9213
  193PVA     C532654   0.666   6.091   4.125  0.1555 -0.3180  1.4235
  193PVA     H932655   0.614   6.187   4.133 -0.8764 -0.5270 -1.4051
  193PVA     O232656   0.719   6.051   4.249 -0.2409 -0.9696 -0.0338
  193PVA    H1032657   0.751   5.961   4.232  1.6122 -0.4765  0.6210
  193PVA     C632658   0.560   5.986   4.077 -0.0909 -0.7422  0.1459
  193PVA    H1132659   0.561   5.974   3.967  0.5549 -1.8304  0.2448
  193PVA    H1232660   0.579   5.884   4.114 -0.1307 -1.9655 -2.8562
  193PVA     C732661   0.416   6.028   4.130  1.1454 -0.5651  0.7012
  193PVA    H1332662   0.418   6.135   4.107 -0.6695 -0.8453 -1.0329
  193PVA    H1432663   0.391   6.010   4.235  0.3164 -2.0791  0.2792
  193PVA     C832664   0.314   5.939   4.057 -0.4478 -0.1430  0.2786
  193PVA    H1532665   0.309   5.972   3.952 -3.4826  0.9595  0.6707
  193PVA     O332666   0.345   5.801   4.053 -0.1511 -0.8171  0.3175
  193PVA    H1632667   0.286   5.748   4.109  0.5728 -1.9493  0.0400
  193PVA     C932668   0.170   5.947   4.112  0.3458  0.2373  1.2835
  193PVA    H1732669   0.164   6.046   4.159 -2.7962  0.6648  0.2207
  193PVA    H1832670   0.162   5.862   4.181 -1.1687 -0.5893  0.1504
  193PVA    C1032671   0.047   5.959   4.008  0.3645 -1.0684 -0.2904
  193PVA    H1932672   0.036   6.055   3.957  3.4744 -0.6957 -0.4792
  193PVA    H2032673   0.059   5.878   3.935  0.1107 -1.6797  0.3265
  193PVA    C1132674   7.678   5.951   4.086  0.6804  0.3454  0.9544
  193PVA    H2132675   7.662   6.033   4.157 -0.1978  0.7184  0.3499
  193PVA     O432676   7.672   5.818   4.155 -0.0711  1.4565  0.1991
  193PVA    H2232677   7.652   5.758   4.081  3.6024 -4.2734  3.0942
  193PVA    C1232678   7.551   5.940   3.981  0.8576  0.7390  0.0536
  193PVA    H2332679   7.527   6.024   3.915  2.4684  0.3232 -1.1180
  193PVA    H2432680   7.564   5.855   3.913 -0.0773  0.5745  0.0673
  193PVA    C1332681   7.422   5.913   4.052  0.3928  1.5137 -0.6996
  193PVA    H2532682   7.383   6.005   4.098  3.1789  3.5734 -2.1431
  193PVA    H2632683   7.428   5.834   4.128 -3.6567  4.4828  3.2683
  193PVA    C1432684   7.301   5.867   3.961 -0.3011  0.5582  1.0232
  193PVA    H2732685   7.301   5.920   3.865 -3.1255 -1.2492 -0.1178
  193PVA     O532686   7.321   5.726   3.937  0.3510 -0.2032 -0.0226
  193PVA    H2832687   7.257   5.702   3.867 -0.8721 -1.1189  1.3299
  193PVA    C1532688   7.161   5.893   4.017  0.4013  0.3468  0.0587
  193PVA    H2932689   7.160   6.002   4.013 -4.1103  0.4826 -0.1437
  193PVA    H3032690   7.160   5.839   4.113  1.9600 -3.1806 -1.7055
  193PVA    C1632691   7.033   5.843   3.949 -0.2653  0.3139 -0.2157
  193PVA    H3132692   7.030   5.882   3.846 -3.0523  2.8622  0.7064
  193PVA    H3232693   7.050   5.737   3.928 -1.4408 -0.0547  0.6440
  193PVA    C1732694   6.898   5.870   4.016  0.7829  0.5027  0.0186
  193PVA    H3332695   6.891   5.833   4.119  0.2534  0.9853  0.1593
  193PVA     O632696   6.873   6.007   4.045 -0.3319 -0.5789  0.2137
  193PVA    H3432697   6.964   6.034   4.069 -1.2717  3.6055 -0.1518
  193PVA    C1832698   6.772   5.816   3.938 -0.5127 -0.6151 -0.5494
  193PVA    H3532699   6.797   5.842   3.834 -0.0084  5.0551  0.6762
  193PVA    H3632700   6.775   5.706   3.935 -0.4548 -0.6118 -0.6314
  193PVA    C1932701   6.627   5.847   4.005 -0.4596  0.6338 -0.5578
  193PVA    H3732702   6.592   5.947   3.978 -2.8052 -0.5775 -2.2843
  193PVA    H3832703   6.626   5.845   4.115 -1.2590  2.9538 -0.4700
  193PVA    C2032704   6.503   5.775   3.944  0.5800  0.2129 -0.7646
  193PVA    H3932705   6.492   5.677   3.991 -0.1944  1.9342  3.0231
  193PVA     O732706   6.518   5.756   3.808  1.1163 -0.1203  0.0178
  193PVA    H4032707   6.468   5.825   3.761 -1.1183  0.3601  2.8711
  193PVA    C2132708   6.362   5.830   3.992 -0.0476 -1.2438 -0.9509
  193PVA    H4132709   6.368   5.857   4.098 -2.4741 -2.0331 -0.5476
  193PVA    H4232710   6.337   5.925   3.942  5.6517  1.4959  0.5176
  193PVA    C2232711   6.245   5.730   3.959 -0.9170  0.2979 -0.0631
  193PVA    H4332712   6.294   5.666   3.884 -0.9440 -1.8536  1.6470
  193PVA    H4432713   6.241   5.672   4.052 -1.5036 -4.0170 -2.4842
  193PVA    C2332714   6.108   5.786   3.927  0.3309 -1.1457  0.4807
  193PVA    H4532715   6.123   5.871   3.859 -1.2453 -1.2318 -0.0089
  193PVA     O832716   6.048   5.861   4.031 -0.2293  0.1785 -0.5875
  193PVA    H4632717   5.977   5.906   3.983 -1.2509  2.8237  3.0517
  193PVA    C2432718   6.015   5.682   3.878 -0.3978  0.9205 -0.2407
  193PVA    H4732719   5.999   5.611   3.960  2.1121  0.5417 -0.0235
  193PVA    H4832720   6.065   5.624   3.799  2.5516  4.1860 -1.0105
  193PVA    C2532721   5.869   5.732   3.844 -0.4455  0.6286 -0.0765
  193PVA    H4932722   5.877   5.809   3.767  3.3267  2.9789  2.3514
  193PVA    H5032723   5.823   5.786   3.929  0.7314  0.8765  0.4167
  193PVA    C2632724   5.768   5.618   3.801 -0.9633 -0.1449  0.0251
  193PVA    H5132725   5.820   5.526   3.830 -2.2700 -0.5884  1.0855
  193PVA     O932726   5.748   5.628   3.661  0.2292  0.2314  0.1310
  193PVA    H5232727   5.844   5.618   3.648  0.6237 -0.0869  2.7884
  193PVA    C2732728   5.619   5.617   3.861 -0.1231  0.8973 -0.3273
  193PVA    H5332729   5.572   5.696   3.802  1.1390  1.9511  0.0175
  193PVA    H5432730   5.625   5.644   3.967  0.8768  0.1183 -0.1643
  193PVA    C2832731   5.540   5.486   3.835 -1.1019  0.6531  0.5317
  193PVA    H5532732   5.513   5.488   3.729 -0.1585  3.9146  0.2398
  193PVA    H5632733   5.601   5.405   3.876 -2.7651 -1.0840 -0.2963
  193PVA    C2932734   5.412   5.480   3.924  0.0975  0.2186 -0.3710
  193PVA    H5732735   5.367   5.578   3.905 -1.6743 -1.0566 -3.4537
  193PVA    O1032736   5.463   5.469   4.055 -0.7256  0.3203 -0.6853
  193PVA    H5832737   5.388   5.440   4.111  1.3464 -3.4788  0.4706
  193PVA    C3032738   5.302   5.367   3.910  0.3785 -0.8129  0.7327
  193PVA    H5932739   5.286   5.356   3.802  3.4610  0.9602 -0.0516
  193PVA    H6032740   5.347   5.277   3.954  2.0351 -0.1607  0.4510
  193PVA    C3132741   5.165   5.370   3.984 -0.2074 -0.7394 -0.8917
  193PVA    H6132742   5.097   5.294   3.943 -0.1203  0.1914 -2.8800
  193PVA    H6232743   5.101   5.456   3.961  1.8391  0.7889 -1.0697
  193PVA    C3232744   5.151   5.361   4.146 -0.6410 -0.0045 -1.5993
  193PVA    H6332745   5.146   5.251   4.152 -0.5110  0.0587  0.4805
  193PVA    O1132746   5.260   5.422   4.218  0.6332 -0.7879  0.1788
  193PVA    H6432747   5.234   5.515   4.226 -2.9634 -1.7418  1.8444
  193PVA    C3332748   5.016   5.419   4.207  0.8324  0.1960 -0.2894
  193PVA    H6532749   5.008   5.528   4.192 -1.0333  0.3995  1.7968
  193PVA    H6632750   4.945   5.363   4.145 -1.0871  0.9994  1.0870
  193PVA    C3432751   4.957   5.391   4.349 -0.1486 -0.2780 -1.2273
  193PVA    H6732752   4.964   5.291   4.393 -3.7964  1.0607  3.2431
  193PVA    H6832753   4.849   5.396   4.334  0.2417  2.8639 -4.0546
  193PVA    C3532754   5.012   5.487   4.461 -0.0095 -0.3456 -1.0852
  193PVA    H6932755   5.117   5.456   4.465 -0.4189 -1.7051 -0.1489
  193PVA    O1232756   5.011   5.626   4.421  0.3765  0.2189  0.3075
  193PVA    H7032757   5.090   5.667   4.460  1.8946 -4.6926  3.3448
  193PVA    C3632758   4.968   5.461   4.604 -0.0569 -0.2068  1.2428
  193PVA    H7132759   4.859   5.473   4.615  0.0890  0.7752  1.7604
  193PVA    H7232760   4.995   5.356   4.620 -0.2574 -1.0291 -2.8117
  193PVA    C3732761   5.050   5.529   4.712 -0.5734  0.1557  0.2813
  193PVA    H7332762   5.021   5.635   4.718 -1.6315  0.1379 -2.7545
  193PVA    H7432763   5.158   5.510   4.699 -0.1923  2.7433 -1.1118
  193PVA    C3832764   5.018   5.472   4.866 -0.2694  0.4675 -0.5432
  193PVA    H7532765   5.031   5.363   4.859  0.8708  0.5745 -0.2973
  193PVA    O1332766   4.874   5.484   4.880 -0.1838  0.6669  0.0348
  193PVA    H7632767   4.863   5.547   4.953 -2.3221 -0.0216  0.3786
  193PVA    C3932768   5.100   5.555   4.968  0.1827 -0.1139  0.0278
  193PVA    H7732769   5.069   5.658   4.951 -0.9439 -0.4992 -0.3571
  193PVA    H7832770   5.204   5.540   4.935 -0.6132 -1.9058 -1.9006
  193PVA    C4032771   5.098   5.515   5.119 -0.2897  0.9153 -0.1570
  193PVA    H7932772   4.994   5.492   5.145  0.0898  1.7520  2.3199
  193PVA    H8032773   5.153   5.421   5.132 -1.3195 -0.0515 -2.2043
  193PVA    C4132774   5.164   5.623   5.209  0.3271  0.8852  0.2960
  193PVA    H8132775   5.244   5.681   5.162 -2.2923  3.2584 -1.5618
  193PVA    O1432776   5.055   5.713   5.249  0.8852  0.3046 -1.4102
  193PVA    H8232777   5.104   5.781   5.298  2.1463 -0.0270 -2.1502
  193PVA    C4232778   5.210   5.559   5.338  0.0681 -0.4157 -0.1808
  193PVA    H8332779   5.136   5.512   5.404 -1.5549  1.5650 -0.4574
  193PVA    H8432780   5.275   5.478   5.302  0.1164  0.1074 -1.3142
  193PVA    C4332781   5.290   5.664   5.408  0.1966 -0.3955 -1.3705
  193PVA    H8532782   5.225   5.751   5.418 -0.8633 -1.4145  2.1944
  193PVA    H8632783   5.379   5.689   5.349 -0.3359  0.4647 -1.8270
  193PVA    C4432784   5.316   5.628   5.560  0.1782 -0.0405  0.4074
  193PVA    H8732785   5.221   5.584   5.594 -0.9982  2.2169  0.2395
  193PVA    O1532786   5.420   5.534   5.562  0.0030  0.2811  0.1647
  193PVA    H8832787   5.377   5.457   5.519 -0.3822  1.5009 -1.7699
  193PVA    C4532788   5.360   5.758   5.632 -0.7152  1.2773 -0.8733
  193PVA    H8932789   5.268   5.812   5.659 -3.0162 -1.4828 -2.6769
  193PVA    H9032790   5.435   5.816   5.576 -0.2323  0.1827 -1.3827
  193PVA    C4632791   5.444   5.737   5.775 -0.7253 -0.4315  0.0939
  193PVA    H9132792   5.391   5.674   5.847  2.3846 -1.2424  1.8687
  193PVA    H9232793   5.543   5.697   5.751 -1.4612 -0.8050 -2.5923
  193PVA    C4732794   5.475   5.860   5.846 -0.4089 -0.0069  0.6977
  193PVA    H9332795   5.543   5.913   5.777 -3.7512 -1.3369 -4.0533
  193PVA    O1632796   5.353   5.927   5.873 -0.4210 -0.2336 -0.1813
  193PVA    H9432797   5.331   5.875   5.953 -1.9593  0.3644 -0.1881
  193PVA    C4832798   5.563   5.857   5.974 -0.8259 -0.4168 -0.1784
  193PVA    H9532799   5.523   5.784   6.046 -0.0536 -0.3404  0.3386
  193PVA    H9632800   5.663   5.812   5.963  2.0044  5.0173 -0.1213
  193PVA    C4932801   5.588   6.005   6.038 -0.0540  0.9674 -0.4794
  193PVA    H9732802   5.495   6.063   6.043 -0.3348  0.4958  4.6863
  193PVA    H9832803   5.640   6.054   5.955  1.6316  1.5512  0.8509
  193PVA    C5032804   5.651   6.019   6.176  1.2677 -0.1425 -0.2695
  193PVA    H9932805   5.728   5.945   6.199  0.5719 -0.0768  2.7453
  193PVA    O1732806   5.553   5.990   6.273  1.2675 -0.6248  0.4304
  193PVA   H10032807   5.489   5.938   6.222  0.1699  2.0395 -1.0986
  193PVA    C5132808   5.698   6.157   6.206 -0.7345 -0.6996 -1.6743
  193PVA   H10132809   5.803   6.148   6.178  0.5633 -1.2568  2.6448
  193PVA   H10232810   5.635   6.234   6.160 -1.0761 -0.1164 -0.2788
  194PVA     C132811   4.352   7.621   7.615  0.1679 -0.5585  0.8042
  194PVA     H132812   4.320   0.036   7.646 -0.7241 -0.6539  0.2131
  194PVA     H232813   4.261   7.561   7.629 -1.4297  1.4405 -0.5148
  194PVA     C232814   4.426   7.625   7.478  0.3473  0.2326 -0.2778
  194PVA     H332815   4.422   7.520   7.444 -0.7197 -0.3023  1.3543
  194PVA     O132816   4.553   7.666   7.495 -0.0177 -0.5930 -0.1625
  194PVA     H432817   4.603   7.591   7.459  2.6841  0.6011  0.7697
  194PVA     C332818   4.358   0.022   7.354 -1.2565  0.5216 -0.1776
  194PVA     H532819   4.252   0.005   7.376 -1.0307 -1.1406 -0.2792
  194PVA     H632820   4.375   0.131   7.353 -1.4100  0.5657  0.7434
  194PVA     C432821   4.377   7.642   7.212 -0.2228 -0.2103 -0.2676
  194PVA     H732822   4.277   7.599   7.199  0.4672 -1.3911 -2.0907
  194PVA     H832823   4.375   0.038   7.137 -0.9133 -1.1371 -1.2811
  194PVA     C532824   4.492   7.548   7.185  1.0729  0.0291 -0.7294
  194PVA     H932825   4.577   7.563   7.253  0.5058 -0.6935  0.1503
  194PVA     O232826   4.443   7.415   7.214  0.6969 -0.1603  0.0696
  194PVA    H1032827   4.502   7.342   7.189 -0.3116 -0.3327 -2.0397
  194PVA     C632828   4.525   7.557   7.027  0.8831  0.5507 -0.8876
  194PVA    H1132829   4.552   7.466   6.973 -1.2928  1.0775 -3.0336
  194PVA    H1232830   4.432   7.582   6.975 -1.2956 -0.4290  2.2395
  194PVA     C732831   4.629   7.665   6.997  0.1778 -0.9032  0.4164
  194PVA    H1332832   4.608   0.058   7.072 -4.5336 -2.8926  1.5417
  194PVA    H1432833   4.624   0.010   6.892  1.5729 -4.4629 -0.8142
  194PVA     C832834   4.773   7.618   7.005  0.6410  0.2708 -1.7996
  194PVA    H1532835   4.769   7.543   7.085 -0.3684 -0.3771 -2.4404
  194PVA     O332836   4.839   0.053   7.038  0.0657 -1.3354 -0.3200
  194PVA    H1632837   4.771   0.118   7.064  2.1052  1.1448 -0.7625
  194PVA     C932838   4.828   7.542   6.883 -0.4846  1.4430 -0.7098
  194PVA    H1732839   4.736   7.501   6.841 -0.7139 -0.0368  1.1206
  194PVA    H1832840   4.861   7.610   6.804  1.9094  3.2866  1.6678
  194PVA    C1032841   4.934   7.438   6.934 -1.0188  0.5088  0.0562
  194PVA    H1932842   4.911   7.385   7.027 -1.4719 -4.2051 -2.4770
  194PVA    H2032843   5.028   7.494   6.944 -2.4234  3.0609 -0.0010
  194PVA    C1132844   4.985   7.321   6.839  0.6519  0.5954  0.4259
  194PVA    H2132845   4.902   7.251   6.855  3.5381 -3.9163 -2.3076
  194PVA     O432846   4.978   7.381   6.704  0.4550  0.3812  0.1654
  194PVA    H2232847   5.050   7.446   6.708 -0.5422  1.5031  0.3336
  194PVA    C1232848   5.119   7.263   6.885  1.1110 -1.7128 -0.3933
  194PVA    H2332849   5.095   7.234   6.988  2.2178  2.3267  1.2016
  194PVA    H2432850   5.206   7.330   6.890  2.1022 -3.0361  0.7093
  194PVA    C1332851   5.172   7.131   6.820  0.0457 -0.3006 -0.0902
  194PVA    H2532852   5.099   7.049   6.816  2.2354 -2.4857  1.5221
  194PVA    H2632853   5.203   7.155   6.718  1.4606  4.4527  1.2012
  194PVA    C1432854   5.298   7.076   6.900 -0.2439  0.3641 -0.2459
  194PVA    H2732855   5.278   7.082   7.008  2.3450 -0.9975  0.3699
  194PVA     O532856   5.405   7.157   6.882  0.1342 -1.0584 -0.8461
  194PVA    H2832857   5.380   7.245   6.915  2.6549 -0.6544  0.2521
  194PVA    C1532858   5.338   6.937   6.864  0.2566 -0.5792  1.5098
  194PVA    H2932859   5.373   6.938   6.760 -2.7083  1.2460  0.4213
  194PVA    H3032860   5.253   6.868   6.868 -1.4398  0.9702 -2.6495
  194PVA    C1632861   5.465   6.885   6.951 -0.1531 -0.5173  0.3873
  194PVA    H3132862   5.555   6.945   6.936 -2.4485  2.2728 -4.8513
  194PVA    H3232863   5.422   6.900   7.051  1.0749 -1.8909  1.1656
  194PVA    C1732864   5.497   6.732   6.934  0.3743 -0.2990 -0.5693
  194PVA    H3332865   5.573   6.710   6.858  2.4248 -1.9002  1.8146
  194PVA     O632866   5.396   6.653   6.873  0.0607 -0.1172 -0.1749
  194PVA    H3432867   5.367   6.701   6.793 -2.4467  3.8210  2.7592
  194PVA    C1832868   5.553   6.657   7.059 -1.4298 -0.3486  0.1716
  194PVA    H3532869   5.617   6.729   7.112 -2.4997  1.9246 -1.4428
  194PVA    H3632870   5.467   6.634   7.122 -3.5209 -0.5096 -2.5720
  194PVA    C1932871   5.636   6.529   7.012 -0.0179 -0.4474  0.3952
  194PVA    H3732872   5.736   6.563   6.984 -1.1721  0.8146 -2.6981
  194PVA    H3832873   5.588   6.496   6.919 -2.9993  2.3160  0.7805
  194PVA    C2032874   5.639   6.422   7.124  0.1451  0.2967  0.1286
  194PVA    H3932875   5.540   6.405   7.170  0.2141  0.1113  0.2105
  194PVA     O732876   5.712   6.475   7.240  0.1676 -1.3087  0.0850
  194PVA    H4032877   5.805   6.462   7.218  0.3940  1.2907 -0.7526
  194PVA    C2132878   5.701   6.292   7.101 -0.1747  1.1506  0.4928
  194PVA    H4132879   5.659   6.254   7.007  1.1579  1.2246 -0.1546
  194PVA    H4232880   5.809   6.286   7.080 -0.5210  0.8841 -1.3254
  194PVA    C2232881   5.687   6.187   7.210  0.4286 -0.1524 -0.5690
  194PVA    H4332882   5.580   6.184   7.234  0.1229 -4.0427 -1.6599
  194PVA    H4432883   5.739   6.215   7.302 -2.4825 -1.0240  1.4715
  194PVA    C2332884   5.726   6.041   7.176 -0.8967  0.4543 -0.4857
  194PVA    H4532885   5.711   5.978   7.264 -1.8992 -1.0661 -1.6956
  194PVA     O832886   5.650   5.978   7.065 -0.1780 -0.2784  0.1907
  194PVA    H4632887   5.718   5.933   7.011  0.2511  0.5375  0.0367
  194PVA    C2432888   5.885   6.020   7.175 -0.7990 -0.6376 -0.4289
  194PVA    H4732889   5.923   5.956   7.094  3.0295  1.9055 -0.9078
  194PVA    H4832890   5.929   6.119   7.160 -0.6931 -0.8241 -1.3802
  194PVA    C2532891   5.938   5.944   7.309  0.1073 -0.2565 -0.4855
  194PVA    H4932892   5.904   5.840   7.314 -0.2774 -0.0721  1.2735
  194PVA    H5032893   5.902   5.996   7.398 -0.8201 -0.5963 -0.6478
  194PVA    C2632894   6.086   5.953   7.332 -0.7788 -0.3918  0.1834
  194PVA    H5132895   6.097   6.062   7.346 -2.4625  0.0256 -1.3352
  194PVA     O932896   6.138   5.929   7.202 -0.6764 -1.5810 -0.7952
  194PVA    H5232897   6.094   5.990   7.141 -3.7598 -0.4925  2.2038
  194PVA    C2732898   6.143   5.873   7.459 -1.3895 -0.4380  1.0442
  194PVA    H5332899   6.099   5.884   7.558 -0.9347  0.9638  1.1183
  194PVA    H5432900   6.112   5.768   7.454  0.0351 -0.8260 -1.5320
  194PVA    C2832901   6.298   5.887   7.478  0.1332  0.7028  0.3127
  194PVA    H5532902   6.335   5.805   7.541  3.0106  2.0604  0.5715
  194PVA    H5632903   6.345   5.861   7.383  1.9665 -0.9189  1.5794
  194PVA    C2932904   6.372   6.014   7.534  0.5909  0.3874  0.1427
  194PVA    H5732905   6.341   6.107   7.485 -1.8416  0.5722  1.8629
  194PVA    O1032906   6.313   6.040   7.658 -0.5034  0.3122  0.0282
  194PVA    H5832907   6.239   6.099   7.633 -1.3184 -1.9845 -3.7367
  194PVA    C3032908   6.519   5.991   7.540  0.3806  0.1102  0.0606
  194PVA    H5932909   6.550   6.000   7.645  4.7906 -1.5685 -0.8875
  194PVA    H6032910   6.547   5.891   7.506 -3.4093 -1.8874  2.1212
  194PVA    C3132911   6.605   6.102   7.452  0.2150 -0.2369  0.0420
  194PVA    H6132912   6.597   6.079   7.345 -2.6134 -1.3421  0.4190
  194PVA    H6232913   6.553   6.196   7.472 -1.2828 -1.4898  2.5272
  194PVA    C3232914   6.763   6.096   7.488 -0.5587  0.9571 -0.3316
  194PVA    H6332915   6.790   5.992   7.465 -1.6041  0.3695  1.0196
  194PVA    O1132916   6.792   6.113   7.631 -1.1192 -0.0041  0.3972
  194PVA    H6432917   6.853   6.185   7.654 -0.6052  0.5966 -2.4607
  194PVA    C3332918   6.855   6.182   7.406  0.2042 -0.9356  0.0771
  194PVA    H6532919   6.835   6.289   7.415 -0.3539 -0.9240 -1.1041
  194PVA    H6632920   6.845   6.155   7.300 -2.0025  3.0552 -0.9336
  194PVA    C3432921   7.009   6.183   7.444 -0.2438 -0.6774 -0.5868
  194PVA    H6732922   7.029   6.259   7.520 -2.3289 -1.8963  1.3067
  194PVA    H6832923   7.023   6.080   7.480  0.7027 -0.8994 -1.5538
  194PVA    C3532924   7.093   6.183   7.318 -0.9086 -0.2043 -0.0638
  194PVA    H6932925   7.048   6.108   7.251 -2.6880 -0.3944  1.2722
  194PVA    O1232926   7.209   6.112   7.362  0.1085  0.0711 -0.1475
  194PVA    H7032927   7.259   6.178   7.415 -1.8145 -0.0358  1.9658
  194PVA    C3632928   7.117   6.314   7.242  0.0263 -0.3251  0.1600
  194PVA    H7132929   7.019   6.333   7.196  0.6178  0.7274 -0.6776
  194PVA    H7232930   7.135   6.407   7.297  0.9753  0.7937 -1.9341
  194PVA    C3732931   7.223   6.325   7.129  0.2448  1.2016 -0.8846
  194PVA    H7332932   7.208   6.238   7.064  1.9137  1.4857 -1.7095
  194PVA    H7432933   7.316   6.307   7.183 -1.6356 -0.6823  1.9942
  194PVA    C3832934   7.239   6.462   7.054  0.2100  0.2454  0.1149
  194PVA    H7532935   7.322   6.449   6.984 -0.8077 -0.6048 -0.9947
  194PVA    O1332936   7.250   6.568   7.140 -0.5812 -0.5555  0.1886
  194PVA    H7632937   7.343   6.593   7.155 -1.5613  1.0576  5.8348
  194PVA    C3932938   7.115   6.467   6.964  0.5890 -0.1940 -1.2543
  194PVA    H7732939   7.105   6.379   6.899 -1.7871 -0.9130 -0.0302
  194PVA    H7832940   7.028   6.486   7.028  2.6260  3.7931  0.7457
  194PVA    C4032941   7.137   6.576   6.860  0.3575  0.8659  0.5630
  194PVA    H7932942   7.235   6.576   6.811 -0.2843  0.2091 -0.7569
  194PVA    H8032943   7.123   6.662   6.926 -3.3053  0.1725  0.9043
  194PVA    C4132944   7.033   6.601   6.756  0.4065  0.3388  0.1647
  194PVA    H8132945   7.001   6.705   6.744 -4.4226 -1.2230 -4.2699
  194PVA    O1432946   7.081   6.560   6.631  0.4884 -1.1127 -1.2014
  194PVA    H8232947   7.121   6.474   6.649  0.3171 -0.7686  1.2758
  194PVA    C4232948   6.891   6.533   6.786 -0.3109  0.3951 -0.4247
  194PVA    H8332949   6.915   6.426   6.779  3.2801  0.8774  1.7156
  194PVA    H8432950   6.871   6.563   6.889  3.4072  1.9448  0.0122
  194PVA    C4332951   6.781   6.573   6.686 -0.5460  0.0114  0.2340
  194PVA    H8532952   6.806   6.528   6.590 -2.6384  0.5078 -0.5741
  194PVA    H8632953   6.797   6.678   6.658 -4.3343  0.7269  0.3356
  194PVA    C4432954   6.639   6.563   6.723 -0.5089  0.7620  0.0831
  194PVA    H8732955   6.564   6.620   6.666 -1.1121  1.8321  1.8556
  194PVA    O1532956   6.605   6.615   6.850 -0.5995  0.4646 -1.1102
  194PVA    H8832957   6.668   6.686   6.867  2.9016 -2.4849 -0.5722
  194PVA    C4532958   6.590   6.411   6.720  0.5864  0.7524 -0.4131
  194PVA    H8932959   6.662   6.344   6.771  0.7149 -0.4416 -2.1004
  194PVA    H9032960   6.617   6.365   6.625  0.7825  1.9681 -0.9644
  194PVA    C4632961   6.442   6.378   6.758  0.0808 -0.7648 -0.8926
  194PVA    H9132962   6.369   6.429   6.694 -1.1100 -3.5051 -1.8830
  194PVA    H9232963   6.431   6.412   6.862 -0.7995  0.6668 -1.4163
  194PVA    C4732964   6.434   6.226   6.749  0.5820 -1.2082  0.0574
  194PVA    H9332965   6.529   6.195   6.793  1.3763  0.5943 -0.2994
  194PVA    O1632966   6.413   6.178   6.619 -0.6161 -0.0013 -0.6452
  194PVA    H9432967   6.349   6.106   6.629  0.3790 -0.7093  1.3230
  194PVA    C4832968   6.311   6.170   6.822  0.2520  0.0511 -0.1061
  194PVA    H9532969   6.312   6.061   6.834  3.1567  0.2333  2.5088
  194PVA    H9632970   6.325   6.210   6.923 -1.0676 -2.4018  1.1444
  194PVA    C4932971   6.175   6.223   6.789  0.7414  0.0668  0.6221
  194PVA    H9732972   6.183   6.329   6.762 -0.1630  0.2511  1.0534
  194PVA    H9832973   6.102   6.220   6.871  1.0110  2.9131  1.0796
  194PVA    C5032974   6.114   6.164   6.655  0.6787  0.0004  0.4057
  194PVA    H9932975   6.138   6.226   6.567 -0.7249  3.7138  2.4470
  194PVA    O1732976   6.157   6.032   6.624  0.1148 -0.5142 -0.7893
  194PVA   H10032977   6.093   5.964   6.652  2.4110 -2.2769  0.5091
  194PVA    C5132978   5.955   6.161   6.657 -0.2152  0.2890  0.9045
  194PVA   H10132979   5.921   6.210   6.749 -0.7045 -1.3486  1.6256
  194PVA   H10232980   5.933   6.057   6.684 -3.4797  0.1173 -1.7186
  195PVA     C132981   4.572   7.220   7.815 -0.3623  0.4186  0.5073
  195PVA     H132982   4.528   7.163   7.898  2.2609 -1.0227  1.0425
  195PVA     H232983   4.674   7.253   7.840 -1.1063  5.2368 -1.8330
  195PVA     C232984   4.557   7.111   7.709 -1.2759  0.0506  0.5718
  195PVA     H332985   4.482   7.044   7.753 -1.1915  0.0066  0.6489
  195PVA     O132986   4.692   7.056   7.708 -0.6660  0.9188  0.0094
  195PVA     H432987   4.729   7.063   7.798  1.6934 -1.1380 -0.6817
  195PVA     C332988   4.531   7.137   7.562  0.1259 -0.1818 -0.7730
  195PVA     H532989   4.612   7.204   7.531  0.4521 -1.4444 -2.8079
  195PVA     H632990   4.432   7.182   7.554  0.2071  0.5479  1.4106
  195PVA     C432991   4.519   7.001   7.484  0.0812 -0.4288 -0.9127
  195PVA     H732992   4.472   6.918   7.539  3.2155 -3.3673 -2.3048
  195PVA     H832993   4.622   6.971   7.459  0.3731 -1.1893  1.0081
  195PVA     C532994   4.439   7.017   7.363  0.2382 -0.7620  0.1194
  195PVA     H932995   4.337   7.057   7.371  1.1837  1.5699  1.6450
  195PVA     O232996   4.500   7.108   7.280  0.1092 -0.1470  0.9755
  195PVA    H1032997   4.596   7.101   7.265  0.6844  5.4412 -0.0391
  195PVA     C632998   4.435   6.894   7.276  0.5269  0.2362 -0.1364
  195PVA    H1132999   4.538   6.859   7.264  0.4919 -0.9753  2.4471
  195PVA    H1233000   4.379   6.835   7.350 -2.5704  0.7534 -1.8818
  195PVA     C733001   4.327   6.901   7.157  0.0797  0.5132 -0.6166
  195PVA    H1333002   4.365   6.972   7.083  2.1077  0.9049  0.7194
  195PVA    H1433003   4.232   6.939   7.196  1.5103  1.3898  2.2957
  195PVA     C833004   4.309   6.755   7.099 -0.5065  0.0168  0.6345
  195PVA    H1533005   4.309   6.685   7.183  3.2041 -2.0166 -0.8002
  195PVA     O333006   4.414   6.713   7.019  0.6824 -0.3633 -0.8628
  195PVA    H1633007   4.496   6.723   7.071 -0.2651  3.7325  0.2007
  195PVA     C933008   4.178   6.732   7.017  0.3797  0.6906  1.4943
  195PVA    H1733009   4.097   6.771   7.079  1.6275  0.4235  3.3998
  195PVA    H1833010   4.148   6.627   7.022  0.3653  0.6329  0.3153
  195PVA    C1033011   4.185   6.790   6.872  0.6483  0.3022  0.9553
  195PVA    H1933012   4.197   6.896   6.894  3.9055  0.8734 -2.5661
  195PVA    H2033013   4.262   6.756   6.802 -0.9896 -1.2203 -0.1911
  195PVA    C1133014   4.053   6.775   6.801  0.2901 -1.1793  0.5594
  195PVA    H2133015   4.010   6.678   6.828  0.6767 -1.3091  0.7174
  195PVA     O433016   3.945   6.859   6.860 -0.1955  0.2476  0.4768
  195PVA    H2233017   3.963   6.940   6.809 -4.9393  0.8316 -0.6782
  195PVA    C1233018   4.044   6.808   6.645  1.2963  0.1883 -0.5636
  195PVA    H2333019   4.130   6.841   6.586  1.3726 -1.3945 -1.3834
  195PVA    H2433020   4.037   6.705   6.606  2.6483 -0.5841  1.1119
  195PVA    C1333021   3.915   6.886   6.593  0.6479 -0.1675  0.0098
  195PVA    H2533022   3.934   6.993   6.608 -2.1905  0.2784  1.0359
  195PVA    H2633023   3.817   6.867   6.640 -1.3239  2.0825 -2.8619
  195PVA    C1433024   3.882   6.856   6.442 -0.1402  1.2700 -0.4394
  195PVA    H2733025   3.835   6.758   6.442 -0.8045  1.5629  0.8715
  195PVA     O533026   4.015   6.874   6.387  0.5138 -0.3108 -0.8975
  195PVA    H2833027   3.995   6.836   6.299  0.6508 -0.6465 -0.7862
  195PVA    C1533028   3.790   6.960   6.367 -0.1593  0.8388 -0.5098
  195PVA    H2933029   3.688   6.932   6.394  0.5377 -2.7516 -1.0625
  195PVA    H3033030   3.808   7.063   6.398  0.3259  0.7958 -0.6368
  195PVA    C1633031   3.790   6.941   6.212  1.1916 -0.0056  0.3205
  195PVA    H3133032   3.779   6.834   6.190  2.6822 -0.3255  1.0111
  195PVA    H3233033   3.880   6.981   6.164  0.3196  1.6477 -0.0176
  195PVA    C1733034   3.670   7.002   6.134 -0.4386 -0.5269 -0.5611
  195PVA    H3333035   3.671   7.099   6.186  1.6856 -1.1516  0.6699
  195PVA     O633036   3.542   6.962   6.172  0.1465 -1.3508 -0.6460
  195PVA    H3433037   3.502   6.889   6.121 -3.9224 -2.4059  3.4485
  195PVA    C1833038   3.682   7.027   5.976  0.2645 -1.5828 -0.7767
  195PVA    H3533039   3.779   7.076   5.967  0.0047 -0.3182  2.2290
  195PVA    H3633040   3.700   6.933   5.921 -0.2900 -2.0445 -0.1882
  195PVA    C1933041   3.575   7.121   5.913 -0.0478  0.8719 -0.0335
  195PVA    H3733042   3.598   7.228   5.921  2.5181  0.3376  0.4328
  195PVA    H3833043   3.471   7.114   5.948 -0.2463  0.3316 -0.7076
  195PVA    C2033044   3.572   7.104   5.760 -0.1276  0.2213  0.2554
  195PVA    H3933045   3.585   6.998   5.737 -1.9806  0.3747 -1.8641
  195PVA     O733046   3.681   7.171   5.686  0.0934  0.1580  0.1059
  195PVA    H4033047   3.745   7.101   5.666 -0.1565  0.4833 -2.0237
  195PVA    C2133048   3.442   7.148   5.699  1.5974  0.6719  0.6593
  195PVA    H4133049   3.405   7.243   5.739 -0.2882 -0.0880  0.8461
  195PVA    H4233050   3.364   7.088   5.748 -1.0025  2.5235 -0.9244
  195PVA    C2233051   3.419   7.142   5.549 -0.0786 -0.1864 -0.1805
  195PVA    H4333052   3.478   7.217   5.495 -3.0189  0.8759 -2.1636
  195PVA    H4433053   3.437   7.038   5.518 -0.3025 -1.0762  2.4338
  195PVA    C2333054   3.266   7.165   5.507 -0.1771  0.5922 -0.0296
  195PVA    H4533055   3.212   7.107   5.583 -1.1918 -0.5144 -1.5456
  195PVA     O833056   3.230   7.297   5.537  0.3413 -0.2488 -0.0213
  195PVA    H4633057   3.166   7.323   5.469  2.6003 -0.0073 -2.1897
  195PVA    C2433058   3.227   7.129   5.363 -0.3385  0.8579 -0.7369
  195PVA    H4733059   3.315   7.136   5.299  0.0582 -1.6341 -0.5695
  195PVA    H4833060   3.206   7.021   5.364  3.1511  0.0470  0.0835
  195PVA    C2533061   3.112   7.183   5.290  0.9660  0.4550 -1.7142
  195PVA    H4933062   3.156   7.277   5.254 -0.8095  1.9430 -0.1498
  195PVA    H5033063   3.034   7.203   5.364  1.2156 -1.6370 -0.8024
  195PVA    C2633064   3.059   7.104   5.178 -1.2990 -0.3881 -0.2828
  195PVA    H5133065   3.148   7.046   5.154 -1.6157 -1.2486  0.5446
  195PVA     O933066   3.031   7.188   5.068  0.0210  0.2571 -0.3843
  195PVA    H5233067   3.018   7.142   4.983 -5.8546 -0.0295  0.2057
  195PVA    C2733068   2.928   7.032   5.202  0.1635 -1.5070 -0.9142
  195PVA    H5333069   2.844   7.101   5.220 -0.0711 -2.3050  1.4719
  195PVA    H5433070   2.951   6.972   5.291  3.2581 -3.6232 -2.9323
  195PVA    C2833071   2.884   6.940   5.093  0.4504 -1.1216  0.4525
  195PVA    H5533072   2.874   6.996   5.000  1.4569 -4.4410 -1.8327
  195PVA    H5633073   2.947   6.850   5.094 -2.8028 -3.8355 -4.0847
  195PVA    C2933074   2.747   6.864   5.115  0.5586  0.5912  0.6516
  195PVA    H5733075   2.754   6.806   5.208 -2.5001 -0.9809  0.0334
  195PVA    O1033076   2.644   6.959   5.137  0.8630 -0.1975  0.0901
  195PVA    H5833077   2.572   6.931   5.196  0.4648 -2.5513 -1.3908
  195PVA    C3033078   2.699   6.780   4.993 -0.1051  1.2075  0.0706
  195PVA    H5933079   2.678   6.855   4.916 -2.3105  1.8487  1.2167
  195PVA    H6033080   2.776   6.705   4.971  0.7569  1.3027  2.4652
  195PVA    C3133081   2.561   6.721   4.995  0.1658  0.8658 -1.0538
  195PVA    H6133082   2.482   6.793   5.019 -0.3034 -0.0253  0.1958
  195PVA    H6233083   2.548   6.657   5.084 -4.6218  1.1149 -1.3501
  195PVA    C3233084   2.521   6.621   4.885  1.0546 -0.2048  1.2420
  195PVA    H6333085   2.505   6.666   4.786  3.0631  0.0002  0.9654
  195PVA    O1133086   2.613   6.504   4.872  0.0045 -0.0124 -1.4482
  195PVA    H6433087   2.683   6.549   4.822  1.5137  1.5915  1.7976
  195PVA    C3333088   2.385   6.555   4.913 -0.9003  0.1291 -0.3907
  195PVA    H6533089   2.406   6.488   4.997  2.3446  0.2705 -0.9602
  195PVA    H6633090   2.324   6.641   4.942  3.5927  3.5808 -0.0384
  195PVA    C3433091   2.326   6.446   4.812  2.0947  0.4870  0.8568
  195PVA    H6733092   2.342   6.484   4.711 -2.0036  0.0253 -0.1518
  195PVA    H6833093   2.383   6.353   4.802  0.1745 -0.7134  0.4955
  195PVA    C3533094   2.167   6.405   4.821 -0.4420  0.3163  0.2920
  195PVA    H6933095   2.166   6.312   4.879 -1.1224 -0.2561 -0.6268
  195PVA    O1233096   2.103   6.502   4.884  0.2659  0.5707 -0.7905
  195PVA    H7033097   2.077   6.548   4.803 -2.6455 -1.8108 -1.3603
  195PVA    C3633098   2.091   6.371   4.688 -0.0892  0.4410  0.2943
  195PVA    H7133099   2.091   6.463   4.628  2.4065  2.3479  2.9254
  195PVA    H7233100   2.157   6.295   4.645  3.4337  1.9921  2.5339
  195PVA    C3733101   1.954   6.299   4.683 -0.1552  0.0156 -0.9524
  195PVA    H7333102   1.949   6.208   4.744 -4.2268 -0.5124 -1.7529
  195PVA    H7433103   1.932   6.252   4.586  2.1844 -0.6224 -1.2271
  195PVA    C3833104   1.835   6.392   4.712  0.2732 -0.8243 -0.5813
  195PVA    H7533105   1.845   6.452   4.803 -1.3822 -0.5157 -0.5594
  195PVA    O1333106   1.844   6.498   4.606 -0.2897  0.8160  0.9166
  195PVA    H7633107   1.833   6.462   4.516  2.4692  1.3168  0.2892
  195PVA    C3933108   1.692   6.343   4.689 -0.3898 -1.1678 -0.3163
  195PVA    H7733109   1.663   6.261   4.756 -0.9241 -0.0421  0.8758
  195PVA    H7833110   1.688   6.302   4.588  1.5485 -1.1913 -0.4264
  195PVA    C4033111   1.590   6.452   4.672  0.9332 -0.0899  0.4339
  195PVA    H7933112   1.610   6.531   4.599 -4.3412 -0.0923 -1.4827
  195PVA    H8033113   1.570   6.500   4.768 -0.5027  4.6851 -1.9282
  195PVA    C4133114   1.452   6.412   4.609  1.2876  1.0246 -0.3550
  195PVA    H8133115   1.385   6.499   4.617  3.3021  2.5805  0.6391
  195PVA    O1433116   1.402   6.299   4.674 -0.6389  0.1138 -0.5493
  195PVA    H8233117   1.435   6.215   4.637 -0.1684 -1.2356  2.6084
  195PVA    C4233118   1.433   6.414   4.451 -0.9958  0.4356 -0.5734
  195PVA    H8333119   1.383   6.505   4.414  0.7562  1.1510 -1.2947
  195PVA    H8433120   1.527   6.434   4.397  0.1909  0.0769  1.2762
  195PVA    C4333121   1.345   6.285   4.392  0.6428 -0.2973  0.1448
  195PVA    H8533122   1.247   6.327   4.418  1.7309  0.4458  3.6965
  195PVA    H8633123   1.354   6.193   4.451  2.1299 -0.6978 -0.6446
  195PVA    C4433124   1.368   6.258   4.245  0.1591  0.6554 -0.2370
  195PVA    H8733125   1.469   6.294   4.223  0.2640  2.4339  2.6178
  195PVA    O1533126   1.264   6.318   4.172 -0.2451  0.3603 -0.6477
  195PVA    H8833127   1.307   6.374   4.105  0.0446 -0.4604 -1.1764
  195PVA    C4533128   1.356   6.114   4.197 -1.6061  0.6564  0.6772
  195PVA    H8933129   1.260   6.065   4.212 -1.4324  0.0207 -0.2137
  195PVA    H9033130   1.430   6.064   4.261  0.0920  3.6315  1.2321
  195PVA    C4633131   1.398   6.087   4.048 -0.0717  0.4451  0.9022
  195PVA    H9133132   1.307   6.113   3.992  1.3383 -0.7732 -2.2372
  195PVA    H9233133   1.474   6.155   4.007 -0.8360  0.4211 -0.6451
  195PVA    C4733134   1.436   5.948   4.010  0.2721 -0.0579 -0.6786
  195PVA    H9333135   1.405   5.882   4.092  0.2221 -2.3593 -2.4451
  195PVA    O1633136   1.363   5.912   3.899  0.6437  0.1936 -0.0492
  195PVA    H9433137   1.372   5.982   3.832  3.3705 -0.0680 -0.0746
  195PVA    C4833138   1.584   5.924   3.986 -0.3336 -0.1913 -1.2356
  195PVA    H9533139   1.611   5.967   3.889 -0.1918  1.8607 -0.3277
  195PVA    H9633140   1.652   5.970   4.059  1.7182 -1.8465 -1.9827
  195PVA    C4933141   1.639   5.779   3.984 -0.1105  0.8112  0.3071
  195PVA    H9733142   1.626   5.731   3.886  0.2958 -2.1457  1.6018
  195PVA    H9833143   1.574   5.699   4.021 -0.2573 -0.0987 -1.7618
  195PVA    C5033144   1.792   5.772   4.023  0.2722 -0.0945 -0.3829
  195PVA    H9933145   1.847   5.863   3.997  1.8904 -0.4645  1.5471
  195PVA    O1733146   1.794   5.755   4.165 -0.3407 -0.1686  0.1118
  195PVA   H10033147   1.778   5.662   4.190  4.8231 -1.4421 -0.0359
  195PVA    C5133148   1.881   5.661   3.942  0.1758  0.3968  0.0532
  195PVA   H10133149   1.821   5.569   3.944 -2.4448  1.9220 -1.7210
  195PVA   H10233150   1.894   5.700   3.840 -1.5526  0.4898 -0.1621
  196PVA     C133151   5.714   7.173   6.619  0.6659  0.5739  0.5681
  196PVA     H133152   5.782   7.195   6.536 -1.9683 -0.0218 -1.9254
  196PVA     H233153   5.710   7.272   6.666  1.9220  0.3778  1.1077
  196PVA     C233154   5.563   7.130   6.581 -0.2918 -0.3223 -0.0912
  196PVA     H333155   5.531   7.052   6.651  0.3047  0.0468  0.6076
  196PVA     O133156   5.471   7.235   6.583  0.6110 -0.0440 -0.5014
  196PVA     H433157   5.407   7.204   6.649  2.6368 -2.3684  0.5420
  196PVA     C333158   5.551   7.059   6.445  1.0944  0.2033 -1.0311
  196PVA     H533159   5.447   7.025   6.438  1.5186 -1.1252 -1.3036
  196PVA     H633160   5.598   6.959   6.446 -1.9931 -1.3828 -0.6702
  196PVA     C433161   5.579   7.134   6.310 -0.9066  0.4329  0.6978
  196PVA     H733162   5.499   7.193   6.264 -2.5962 -1.7126  0.7274
  196PVA     H833163   5.667   7.194   6.337  1.3578  0.0520 -4.5723
  196PVA     C533164   5.638   7.036   6.203 -0.5880  1.4248  0.1081
  196PVA     H933165   5.583   6.940   6.205 -1.1110  1.6927  3.4261
  196PVA     O233166   5.781   7.015   6.208 -0.5559 -0.1434 -0.1258
  196PVA    H1033167   5.803   6.958   6.133 -0.0698 -1.4513  0.9824
  196PVA     C633168   5.607   7.090   6.064 -0.2170  0.7562  0.5618
  196PVA    H1133169   5.502   7.122   6.058 -0.4025 -0.1047 -1.4067
  196PVA    H1233170   5.656   7.187   6.047  0.3313  0.1164 -1.9564
  196PVA     C733171   5.644   6.985   5.950  0.6639 -0.9667 -0.2523
  196PVA    H1333172   5.627   6.883   5.988 -0.2161 -1.4573 -1.8292
  196PVA    H1433173   5.750   6.987   5.920  0.3699  1.7034 -1.3271
  196PVA     C833174   5.558   6.994   5.814 -0.1504 -1.1857  0.1038
  196PVA    H1533175   5.579   7.095   5.777  0.4847  0.7429  5.0064
  196PVA     O333176   5.425   6.999   5.835 -0.4542 -0.2765 -0.8204
  196PVA    H1633177   5.405   7.082   5.882  0.1817  0.4455 -1.8032
  196PVA     C933178   5.588   6.884   5.698 -0.2192  0.8058 -0.9181
  196PVA    H1733179   5.682   6.914   5.649  0.1015 -0.8228 -1.3612
  196PVA    H1833180   5.507   6.900   5.626 -0.2547  2.5911 -0.5245
  196PVA    C1033181   5.599   6.735   5.734  0.1497  0.2552  0.2943
  196PVA    H1933182   5.649   6.688   5.649  0.0711 -1.2282  1.0408
  196PVA    H2033183   5.657   6.712   5.825  0.4879  1.4197  0.3940
  196PVA    C1133184   5.453   6.678   5.752  0.3555  0.3549 -0.4485
  196PVA    H2133185   5.399   6.688   5.657 -1.5789  3.1296  0.8066
  196PVA     O433186   5.365   6.740   5.859 -0.3179  0.4356  0.1717
  196PVA    H2233187   5.345   6.828   5.823 -1.2306  0.4758  0.7249
  196PVA    C1233188   5.450   6.523   5.777  0.7746 -1.4158  0.1386
  196PVA    H2333189   5.516   6.478   5.701  0.9156 -1.9270  0.5531
  196PVA    H2433190   5.505   6.476   5.861 -0.0453 -0.9648  0.9460
  196PVA    C1333191   5.312   6.458   5.804  0.5738  0.4374 -0.6121
  196PVA    H2533192   5.299   6.475   5.912  2.8310  1.2483 -0.4109
  196PVA    H2633193   5.239   6.511   5.742 -2.2243  1.3914  3.1211
  196PVA    C1433194   5.309   6.300   5.764 -0.8275 -0.7699  0.2007
  196PVA    H2733195   5.211   6.262   5.796 -1.0371 -0.5491 -0.1676
  196PVA     O533196   5.418   6.224   5.830  0.5668  0.2728  0.9863
  196PVA    H2833197   5.364   6.155   5.872 -1.4783  1.1332 -0.0857
  196PVA    C1533198   5.291   6.275   5.607 -1.4602  0.0377 -1.0636
  196PVA    H2933199   5.190   6.300   5.573 -1.3189  2.2237 -0.0906
  196PVA    H3033200   5.354   6.349   5.556 -0.5199 -0.1249 -0.1777
  196PVA    C1633201   5.337   6.140   5.550 -1.0291 -0.6690 -0.1380
  196PVA    H3133202   5.445   6.155   5.539 -0.2526 -2.3127  3.6827
  196PVA    H3233203   5.322   6.064   5.627  1.0793 -2.3812 -1.3044
  196PVA    C1733204   5.280   6.106   5.412 -0.3407 -0.5186  0.5707
  196PVA    H3333205   5.266   6.204   5.363  1.3937  2.6536  5.6097
  196PVA     O633206   5.150   6.043   5.411  0.2444 -0.3705  0.1495
  196PVA    H3433207   5.112   6.077   5.328  1.4532 -2.4709 -1.3798
  196PVA    C1833208   5.370   6.012   5.319 -0.4530  0.5595 -0.0531
  196PVA    H3533209   5.469   6.001   5.363 -0.9621  1.5491  1.4434
  196PVA    H3633210   5.345   5.906   5.326  1.7736 -0.1070 -1.4598
  196PVA    C1933211   5.392   6.052   5.168 -0.7005  1.0180  1.3359
  196PVA    H3733212   5.359   6.156   5.173  0.1094  1.2434  2.5360
  196PVA    H3833213   5.500   6.049   5.146 -1.0912  1.6152 -0.9373
  196PVA    C2033214   5.304   5.977   5.057 -0.8924  0.2061  1.5940
  196PVA    H3933215   5.354   5.879   5.049  1.0523  0.9225  3.9059
  196PVA     O733216   5.316   6.041   4.930  0.3107  0.8587 -1.2651
  196PVA    H4033217   5.400   6.091   4.938  0.2590  0.9526 -1.3009
  196PVA    C2133218   5.159   5.962   5.079  1.6691 -0.5543 -0.4136
  196PVA    H4133219   5.154   5.953   5.188  0.0296 -2.2558 -0.5722
  196PVA    H4233220   5.104   5.874   5.042 -2.2312  0.8531  1.5436
  196PVA    C2233221   5.087   6.095   5.034  0.5727  0.2026 -0.5834
  196PVA    H4333222   5.082   6.097   4.925  1.1637 -2.0673 -0.7032
  196PVA    H4433223   5.146   6.180   5.069  2.4024 -0.8486 -0.9928
  196PVA    C2333224   4.945   6.110   5.098 -0.6940  0.3966 -0.6986
  196PVA    H4533225   4.887   6.020   5.076 -1.9974  1.0139  0.0813
  196PVA     O833226   4.956   6.124   5.242  0.1021 -0.1072 -0.1864
  196PVA    H4633227   4.884   6.074   5.283 -0.5972  1.4191  0.5135
  196PVA    C2433228   4.853   6.230   5.054 -0.7492 -0.1806  0.0801
  196PVA    H4733229   4.817   6.279   5.146  0.7772  0.0992  0.5722
  196PVA    H4833230   4.915   6.303   5.000 -0.0178  1.2600  2.6572
  196PVA    C2533231   4.726   6.205   4.953  1.1214 -0.1097  0.0413
  196PVA    H4933232   4.773   6.140   4.878  1.3816  2.1340 -1.8780
  196PVA    H5033233   4.691   6.295   4.901  2.1929  0.6263  0.5728
  196PVA    C2633234   4.608   6.112   4.990  0.1305 -0.4789 -1.3628
  196PVA    H5133235   4.571   6.177   5.070 -0.1572 -2.9704  0.6272
  196PVA     O933236   4.654   5.997   5.047 -0.1337 -0.4712  0.7005
  196PVA    H5233237   4.674   6.018   5.140  1.6809 -0.2203  0.2876
  196PVA    C2733238   4.485   6.089   4.893 -0.1397 -1.2659 -0.0726
  196PVA    H5333239   4.513   6.004   4.830  2.5904 -1.1619  0.8642
  196PVA    H5433240   4.463   6.172   4.825 -0.9434  1.1532  2.9264
  196PVA    C2833241   4.361   6.028   4.968 -0.6980 -0.1596  0.0641
  196PVA    H5533242   4.353   5.919   4.965  1.1783 -0.3312  0.2503
  196PVA    H5633243   4.389   6.040   5.073 -2.8658 -2.4226  1.0047
  196PVA    C2933244   4.222   6.098   4.936 -1.1914  0.4727 -0.8444
  196PVA    H5733245   4.217   6.207   4.944 -0.4985  0.4063  1.0388
  196PVA    O1033246   4.126   6.048   5.025 -0.2640  0.1038 -0.2584
  196PVA    H5833247   4.170   6.030   5.109 -0.4262  1.6900  0.2088
  196PVA    C3033248   4.168   6.061   4.804  0.1502  0.1539  0.3549
  196PVA    H5933249   4.060   6.077   4.800 -0.7102 -4.2387  0.6529
  196PVA    H6033250   4.222   6.133   4.741 -0.0413 -1.7596 -2.1746
  196PVA    C3133251   4.193   5.924   4.746  0.2034  0.7319 -0.3838
  196PVA    H6133252   4.301   5.905   4.737  0.0262 -0.2796 -0.5237
  196PVA    H6233253   4.155   5.936   4.644 -0.5344  0.0920 -0.1902
  196PVA    C3233254   4.119   5.797   4.815 -0.0920  0.9650  0.7743
  196PVA    H6333255   4.184   5.741   4.882  2.4784 -1.2031 -3.1499
  196PVA    O1133256   4.011   5.839   4.893 -0.4385 -0.2284 -0.0279
  196PVA    H6433257   4.054   5.915   4.936 -2.9943  1.6581 -0.5839
  196PVA    C3333258   4.083   5.695   4.702  0.0883 -0.0185  0.1720
  196PVA    H6533259   4.005   5.719   4.628  0.1120  0.0072  0.1556
  196PVA    H6633260   4.160   5.696   4.624 -0.8013  1.0023 -0.7327
  196PVA    C3433261   4.045   5.550   4.763 -0.2069 -0.3207  0.1186
  196PVA    H6733262   3.945   5.555   4.808  0.0203  0.6559  0.5695
  196PVA    H6833263   4.109   5.527   4.850 -1.1722 -3.7778  0.0267
  196PVA    C3533264   4.021   5.438   4.662  0.5633  0.7317 -0.4641
  196PVA    H6933265   3.995   5.491   4.569 -0.7527  0.6536 -0.1489
  196PVA    O1233266   4.147   5.365   4.642  0.5307  0.0712  0.9196
  196PVA    H7033267   4.203   5.367   4.722  1.6030 -3.2448  0.3912
  196PVA    C3633268   3.919   5.325   4.720 -0.1398  0.8086 -0.0861
  196PVA    H7133269   3.974   5.250   4.778 -0.0123  0.7088 -0.3327
  196PVA    H7233270   3.832   5.348   4.782 -1.7244 -0.7614 -1.6237
  196PVA    C3733271   3.877   5.239   4.601  0.0843  0.7112 -0.0811
  196PVA    H7333272   3.974   5.189   4.586  0.9281  1.8049  1.4711
  196PVA    H7433273   3.815   5.162   4.649  1.3630 -0.2318  0.1153
  196PVA    C3833274   3.805   5.297   4.471  0.7696 -0.2317 -0.5976
  196PVA    H7533275   3.768   5.203   4.427 -0.0135 -0.3122  0.2292
  196PVA    O1333276   3.898   5.368   4.392 -0.2179 -0.5143 -0.2246
  196PVA    H7633277   3.983   5.322   4.408 -1.2468 -1.5351  3.1713
  196PVA    C3933278   3.686   5.379   4.521  0.1263  0.2353 -0.7244
  196PVA    H7733279   3.612   5.321   4.578 -2.5248  2.0991 -2.0162
  196PVA    H7833280   3.721   5.466   4.577  1.5649  1.4270 -3.3041
  196PVA    C4033281   3.593   5.425   4.406  0.6457 -0.2451 -0.3414
  196PVA    H7933282   3.641   5.503   4.346  0.2078  2.4665  2.5751
  196PVA    H8033283   3.559   5.335   4.354 -3.0072  0.2575  0.8538
  196PVA    C4133284   3.454   5.481   4.455 -0.6054  0.1493  0.7090
  196PVA    H8133285   3.402   5.403   4.512 -3.1256 -0.1412 -1.7519
  196PVA    O1433286   3.459   5.578   4.552 -0.8085  0.2420 -0.1749
  196PVA    H8233287   3.383   5.573   4.613  0.5040  1.3215  1.6491
  196PVA    C4233288   3.365   5.519   4.324 -1.5573 -0.3673  0.4143
  196PVA    H8333289   3.373   5.627   4.306  2.2608 -0.6562 -0.3825
  196PVA    H8433290   3.414   5.474   4.237 -2.7537  0.0476 -0.4962
  196PVA    C4333291   3.219   5.463   4.328 -0.5475 -0.1609  0.1250
  196PVA    H8533292   3.181   5.472   4.431 -1.8896  4.1839 -0.5370
  196PVA    H8633293   3.227   5.357   4.304 -2.1658 -0.4792  0.8429
  196PVA    C4433294   3.109   5.534   4.232  0.7286  0.2278 -0.2225
  196PVA    H8733295   3.102   5.641   4.256 -1.0159 -0.0851  0.8627
  196PVA    O1533296   3.157   5.534   4.097 -0.6618 -0.5519 -0.8895
  196PVA    H8833297   3.074   5.566   4.056 -1.8050  2.4632  3.0995
  196PVA    C4533298   2.967   5.485   4.242 -0.3947 -0.6613 -0.7364
  196PVA    H8933299   2.925   5.547   4.322 -1.8790 -0.2329 -1.8123
  196PVA    H9033300   2.964   5.377   4.263 -0.3607 -0.6799 -0.8291
  196PVA    C4633301   2.881   5.512   4.128  1.6100  0.0956 -0.5011
  196PVA    H9133302   2.866   5.619   4.111 -2.9002 -0.5278 -1.5660
  196PVA    H9233303   2.928   5.463   4.042  2.9265 -0.5629  0.5391
  196PVA    C4733304   2.732   5.464   4.148 -0.5328  1.2563 -0.2132
  196PVA    H9333305   2.667   5.552   4.140 -3.3905 -0.8957 -3.7013
  196PVA    O1633306   2.709   5.408   4.274 -0.0954 -1.2599 -0.6771
  196PVA    H9433307   2.640   5.340   4.268 -0.6129 -0.6871 -1.4826
  196PVA    C4833308   2.654   5.378   4.041 -0.8922  0.8099 -0.3173
  196PVA    H9533309   2.688   5.402   3.940 -0.5753  2.2619  0.1099
  196PVA    H9633310   2.681   5.277   4.074  0.2474  0.4983 -2.0942
  196PVA    C4933311   2.508   5.355   4.088 -0.5824  1.4479  0.7322
  196PVA    H9733312   2.470   5.450   4.128 -1.6590  0.1519  2.9749
  196PVA    H9833313   2.496   5.277   4.164  2.8061  0.4282  0.3756
  196PVA    C5033314   2.429   5.320   3.962  0.1908  0.1135 -0.0535
  196PVA    H9933315   2.464   5.384   3.880  2.4706  0.6145  1.2180
  196PVA    O1733316   2.453   5.194   3.930  0.8390  0.3162 -0.5808
  196PVA   H10033317   2.534   5.191   3.877  2.7179  0.7000  2.0735
  196PVA    C5133318   2.279   5.336   3.972  0.5459 -0.6410  0.2379
  196PVA   H10133319   2.233   5.257   4.033 -2.0442 -0.5003 -1.3594
  196PVA   H10233320   2.245   5.328   3.868 -1.8158  2.7879  0.5820
  197PVA     C133321   6.172   7.118   6.711 -0.3353  0.1088 -0.2768
  197PVA     H133322   6.187   7.073   6.810  5.6271 -3.4726 -2.2596
  197PVA     H233323   6.231   7.037   6.666 -1.8327  0.1770 -2.5267
  197PVA     C233324   6.253   7.254   6.702  0.2321 -0.1547  0.8205
  197PVA     H333325   6.294   7.259   6.600 -1.4699  2.4999  0.1643
  197PVA     O133326   6.160   7.362   6.690  0.4784 -0.8764  0.8909
  197PVA     H433327   6.137   7.404   6.775  0.0162  2.2478 -0.6053
  197PVA     C333328   6.358   7.296   6.820 -0.9847 -0.6084 -0.5489
  197PVA     H533329   6.314   7.294   6.920 -0.3555 -3.7213 -0.2408
  197PVA     H633330   6.443   7.229   6.832  3.4161  4.2116 -1.1557
  197PVA     C433331   6.426   7.450   6.816  0.3325  0.4645  0.5389
  197PVA     H733332   6.487   7.441   6.725  2.1926  4.8043  1.0912
  197PVA     H833333   6.353   7.530   6.799 -1.2905 -1.0649  0.0131
  197PVA     C533334   6.533   7.489   6.921  0.1358  0.6054  0.2678
  197PVA     H933335   6.559   7.411   6.995  0.4568  0.7727  0.3337
  197PVA     O233336   6.665   7.522   6.859  0.2477  0.7910  0.4172
  197PVA    H1033337   6.729   7.455   6.829  1.2378  1.7512  0.3249
  197PVA     C633338   6.482   7.622   6.987  0.3814 -0.7530  0.3212
  197PVA    H1133339   6.480   0.006   6.902  0.2928 -1.1079  0.0308
  197PVA    H1233340   6.375   7.617   7.012  0.2143 -1.1140 -0.4310
  197PVA     C733341   6.566   0.004   7.091  0.7873  0.9015 -0.7707
  197PVA    H1333342   6.649   0.053   7.037  0.6073  3.1411  0.8248
  197PVA    H1433343   6.604   7.605   7.151 -0.1393  1.3367  0.4554
  197PVA     C833344   6.488   0.111   7.186  0.5150  0.4053 -0.8429
  197PVA    H1533345   6.416   0.055   7.248 -1.0061  2.3544 -0.7395
  197PVA     O333346   6.390   0.182   7.113  0.6300  0.1035  0.1704
  197PVA    H1633347   6.441   0.233   7.048  3.4496 -0.6620  1.6393
  197PVA     C933348   6.575   0.193   7.271 -1.1140 -0.1066 -1.1026
  197PVA    H1733349   6.624   0.122   7.338  0.8042  0.6397 -1.6675
  197PVA    H1833350   6.653   0.243   7.212  0.5287  1.7492  2.3704
  197PVA    C1033351   6.521   0.297   7.381  0.3962  0.2737  0.1863
  197PVA    H1933352   6.448   0.356   7.325  0.3709  0.7745  0.7400
  197PVA    H2033353   6.450   0.235   7.437  0.5759 -0.1107 -0.0010
  197PVA    C1133354   6.631   0.377   7.467  0.1638 -0.9906 -0.7032
  197PVA    H2133355   6.660   0.316   7.554 -2.0244  1.7246  2.1808
  197PVA     O433356   6.744   0.415   7.392 -0.1348 -0.0704  0.1880
  197PVA    H2233357   6.771   0.506   7.413  2.8634 -1.3222  2.4978
  197PVA    C1233358   6.607   0.508   7.557  0.4145  0.6238  0.2904
  197PVA    H2333359   6.621   0.597   7.494  0.9206 -1.1850 -2.3076
  197PVA    H2433360   6.506   0.500   7.599  0.0181  1.3013 -0.5077
  197PVA    C1333361   6.701   0.497   7.689 -0.2810  0.7302 -0.5401
  197PVA    H2533362   6.795   0.451   7.656 -1.5241 -5.0686  2.7690
  197PVA    H2633363   6.670   0.419   7.758  1.7794 -0.9739 -1.4287
  197PVA    C1433364   6.728   0.636   7.766 -0.1578  0.1688 -0.1143
  197PVA    H2733365   6.791   0.688   7.692  1.2793 -1.3812 -0.0354
  197PVA     O533366   6.607   0.701   7.794 -0.9244  0.5338 -0.5184
  197PVA    H2833367   6.586   0.652   7.875  1.9572 -1.7023 -0.9764
  197PVA    C1533368   6.815   0.625   7.896  0.2175  0.4444 -0.8431
  197PVA    H2933369   6.912   0.593   7.858 -1.1100  0.1234 -4.3899
  197PVA    H3033370   6.761   0.553   7.959  0.7037  1.7052  1.1265
  197PVA    C1633371   6.841   0.764   7.986 -0.8484 -1.5329 -0.5275
  197PVA    H3133372   6.902   0.832   7.926 -1.7461  0.1374  0.3893
  197PVA    H3233373   6.750   0.807   8.029 -1.4899  0.6637 -3.7222
  197PVA    C1733374   6.930   0.724   0.013 -0.2677 -0.1129  0.1258
  197PVA    H3333375   7.002   0.655   8.063  2.0649  1.4327  1.2561
  197PVA     O633376   6.853   0.653   0.111  0.1158 -0.7413  0.6985
  197PVA    H3433377   6.899   0.668   0.195 -0.4139 -1.0397  1.0421
  197PVA    C1833378   6.998   0.844   0.085 -1.3959  0.2637  0.2533
  197PVA    H3533379   7.038   0.899   8.096 -4.2880  1.3084 -0.5518
  197PVA    H3633380   6.921   0.911   0.125  0.5793  1.5588  2.0816
  197PVA    C1933381   7.111   0.816   0.188 -0.2253  0.2574 -0.7156
  197PVA    H3733382   7.078   0.756   0.274  3.6592 -4.1330 -1.9156
  197PVA    H3833383   7.191   0.757   0.142 -0.7232 -1.1912  0.2040
  197PVA    C2033384   7.185   0.934   0.265  1.1526 -0.2436  0.3936
  197PVA    H3933385   7.196   1.018   0.197 -0.3901  1.2520  1.8952
  197PVA     O733386   7.100   0.980   0.367  0.8537 -1.0497 -0.4276
  197PVA    H4033387   7.016   1.011   0.328  1.1302 -0.9128 -0.9287
  197PVA    C2133388   7.330   0.916   0.318 -0.6483 -0.0674 -0.5356
  197PVA    H4133389   7.388   0.950   0.232 -0.8694  1.4478 -0.1146
  197PVA    H4233390   7.349   0.808   0.314  5.9157  0.3431  3.6893
  197PVA    C2233391   7.381   0.986   0.452 -0.2339 -0.9275 -1.3798
  197PVA    H4333392   7.371   1.093   0.430 -2.6911 -0.8071 -0.0310
  197PVA    H4433393   7.305   0.988   0.531  0.4464 -0.0538 -0.7343
  197PVA    C2333394   7.528   0.967   0.504  0.1168 -0.2666  0.9298
  197PVA    H4533395   7.537   0.865   0.545 -1.4798 -0.9229 -0.2293
  197PVA     O833396   7.614   0.964   0.396  0.0777  0.5665  0.0379
  197PVA    H4633397   7.674   0.888   0.410 -1.5707 -0.7437  0.3520
  197PVA    C2433398   7.585   1.065   0.610  0.8925  0.1245  0.2684
  197PVA    H4733399   7.531   1.160   0.596 -0.6809 -0.8458 -0.5480
  197PVA    H4833400   7.546   1.034   0.708 -2.3513  0.9062 -0.6323
  197PVA    C2533401   7.730   1.105   0.620 -0.4139  0.0896  0.4746
  197PVA    H4933402   0.032   1.091   0.534 -0.1149 -2.7833  1.0901
  197PVA    H5033403   0.003   1.023   0.682 -1.0661  0.8738  1.9765
  197PVA    C2633404   0.011   1.228   0.728  0.2322 -0.0985  0.9299
  197PVA    H5133405   7.738   1.198   0.827 -0.5529  1.6551  1.2079
  197PVA     O933406   7.716   1.353   0.686 -0.5052  0.3934 -1.0225
  197PVA    H5233407   0.020   1.409   0.649 -0.4071  0.0763 -1.3227
  197PVA    C2733408   0.165   1.257   0.722  0.6235 -1.0810  0.1294
  197PVA    H5333409   0.192   1.271   0.616  5.2212 -0.3252  1.1957
  197PVA    H5433410   0.219   1.168   0.757  0.2213 -0.1408  3.5059
  197PVA    C2833411   0.213   1.386   0.812 -0.3122  0.2530 -0.2621
  197PVA    H5533412   0.177   1.386   0.916  0.0109 -0.2333 -0.1490
  197PVA    H5633413   0.168   1.473   0.762 -4.5082 -1.8126 -0.5318
  197PVA    C2933414   0.375   1.396   0.808  1.1716  0.5466  0.0371
  197PVA    H5733415   0.397   1.292   0.838 -4.1989 -1.2673 -1.2206
  197PVA    O1033416   0.400   1.413   0.688  0.0779  0.8301  0.3029
  197PVA    H5833417   0.339   1.485   0.664 -2.1377  0.5999  4.3384
  197PVA    C3033418   0.448   1.506   0.900 -0.8957  0.8168 -0.6030
  197PVA    H5933419   0.419   1.609   0.876 -0.5319  0.6283 -1.9606
  197PVA    H6033420   0.395   1.488   0.994  0.0736 -2.1764 -0.5468
  197PVA    C3133421   0.601   1.483   0.908  0.3426  0.2287 -0.7390
  197PVA    H6133422   0.602   1.379   0.942  2.5045 -0.0868 -1.5903
  197PVA    H6233423   0.638   1.480   0.805 -1.2000 -2.3115 -1.3067
  197PVA    C3233424   0.686   1.580   1.002 -0.1342 -0.7684 -0.5897
  197PVA    H6333425   0.689   1.660   0.927 -0.9385 -1.0776 -0.9689
  197PVA    O1133426   0.615   1.604   1.120 -0.6200 -0.3768  0.1580
  197PVA    H6433427   0.586   1.696   1.112 -1.7978 -0.8031 -0.6744
  197PVA    C3333428   0.831   1.553   1.036  0.2911 -0.4736  1.0233
  197PVA    H6533429   0.835   1.443   1.041  0.6879 -0.6599 -1.7740
  197PVA    H6633430   0.835   1.588   1.140  1.9923  0.7092  0.5993
  197PVA    C3433431   0.947   1.607   0.945 -0.1864  0.2367 -0.4721
  197PVA    H6733432   0.922   1.594   0.839 -2.1187 -1.5558  0.1282
  197PVA    H6833433   0.984   1.708   0.963 -0.7281  0.0818  1.7146
  197PVA    C3533434   1.088   1.538   1.000  0.3330  0.0985  0.9329
  197PVA    H6933435   1.048   1.436   1.000  1.4262 -0.6987 -4.9633
  197PVA    O1233436   1.102   1.582   1.131  0.7433  0.5243  0.4485
  197PVA    H7033437   1.174   1.533   1.175 -1.6988 -2.1657  1.8298
  197PVA    C3633438   1.211   1.544   0.903  0.0782  0.7488 -0.2257
  197PVA    H7133439   1.178   1.578   0.804 -0.0465  3.7995  0.7381
  197PVA    H7233440   1.276   1.629   0.929 -0.0941  1.0414 -0.7250
  197PVA    C3733441   1.308   1.423   0.883  0.4073  0.4812  0.6956
  197PVA    H7333442   1.295   1.372   0.786  0.3077 -3.6859  2.7045
  197PVA    H7433443   1.269   1.347   0.951  2.4513  0.8254  2.3324
  197PVA    C3833444   1.459   1.439   0.885  0.6377  0.6307  0.5880
  197PVA    H7533445   1.486   1.509   0.804 -3.3229  1.9324  0.1760
  197PVA    O1333446   1.479   1.489   1.021 -0.0804 -0.4043  0.9064
  197PVA    H7633447   1.401   1.542   1.046 -0.3219  0.7991 -1.9594
  197PVA    C3933448   1.533   1.301   0.874 -0.3395  0.6853 -0.9924
  197PVA    H7733449   1.480   1.224   0.817  1.6005 -0.8205 -0.8955
  197PVA    H7833450   1.570   1.273   0.974 -2.0051 -0.3570 -0.6269
  197PVA    C4033451   1.660   1.278   0.802  0.2977  0.6606 -0.5233
  197PVA    H7933452   1.643   1.283   0.694  0.1914  2.2431 -0.4575
  197PVA    H8033453   1.727   1.365   0.811  2.7734 -0.6225 -4.1088
  197PVA    C4133454   1.740   1.143   0.820 -0.3479  1.0638 -0.5116
  197PVA    H8133455   1.776   1.127   0.922  4.9872 -2.6868 -2.5591
  197PVA    O1433456   1.660   1.043   0.782  0.3983 -0.5446 -0.5147
  197PVA    H8233457   1.631   1.047   0.689 -0.4229 -0.2563 -0.2478
  197PVA    C4233458   1.863   1.126   0.721 -0.2122  0.1478 -0.8156
  197PVA    H8333459   1.856   1.171   0.622  0.4036 -0.2160 -1.0271
  197PVA    H8433460   1.943   1.186   0.767  1.4815 -0.6178 -2.6314
  197PVA    C4333461   1.920   0.975   0.700  0.2884 -0.3041  0.4933
  197PVA    H8533462   1.904   0.940   0.597  0.6310 -1.2665  0.7614
  197PVA    H8633463   1.861   0.897   0.748 -1.3100  0.4816 -0.1233
  197PVA    C4433464   2.071   0.950   0.693 -0.1963 -0.1482  0.5351
  197PVA    H8733465   2.117   1.000   0.780  0.3888 -0.2753  0.3030
  197PVA    O1533466   2.125   1.031   0.593 -0.2599  0.2592 -0.5854
  197PVA    H8833467   2.208   0.991   0.563 -0.8133 -1.2623 -0.1488
  197PVA    C4533468   2.136   0.813   0.674 -0.4953 -0.0747 -0.7911
  197PVA    H8933469   2.224   0.819   0.609  1.1419  0.7182  1.3821
  197PVA    H9033470   2.054   0.755   0.629  1.0130 -3.2491  0.2652
  197PVA    C4633471   2.183   0.715   0.794 -0.3137 -0.4784  0.1639
  197PVA    H9133472   2.132   0.734   0.889  0.1961 -1.9340  0.7645
  197PVA    H9233473   2.144   0.616   0.770  0.0833 -1.5619  3.4117
  197PVA    C4733474   2.342   0.701   0.811 -0.5282 -0.1137 -0.9690
  197PVA    H9333475   2.387   0.700   0.711  0.0488  1.5331 -0.7463
  197PVA    O1633476   2.402   0.809   0.899  0.3424  0.0689 -0.0157
  197PVA    H9433477   2.471   0.774   0.958 -1.5148 -4.8546 -0.2750
  197PVA    C4833478   2.377   0.556   0.878 -0.5411  0.1133  0.8238
  197PVA    H9533479   2.307   0.529   0.959  2.4496 -3.2968  2.5706
  197PVA    H9633480   2.352   0.477   0.806  0.7714 -2.2348  2.7855
  197PVA    C4933481   2.521   0.547   0.944 -0.5343  0.0915 -0.2204
  197PVA    H9733482   2.593   0.594   0.875 -2.8940  0.9307 -2.2615
  197PVA    H9833483   2.528   0.614   1.030 -1.6117  3.0718 -2.3082
  197PVA    C5033484   2.596   0.416   1.006  1.0050 -0.5673 -0.6289
  197PVA    H9933485   2.534   0.338   1.052 -2.2690  2.8408  1.2933
  197PVA    O1733486   2.684   0.371   0.899  0.7372 -0.5210 -0.0824
  197PVA   H10033487   2.650   0.416   0.819  0.3790  2.1504  1.4863
  197PVA    C5133488   2.683   0.447   1.139 -0.6017 -0.4964  0.2047
  197PVA   H10133489   2.738   0.541   1.127  2.4457 -1.7953  2.6560
  197PVA   H10233490   2.628   0.466   1.232  0.2462 -2.2334  1.0974
  198PVA     C133491   2.703   5.759   4.371 -0.8999  0.3041 -0.0184
  198PVA     H133492   2.748   5.802   4.462  1.0233  1.2377 -1.3593
  198PVA     H233493   2.767   5.671   4.354  0.7212  1.7154 -1.4603
  198PVA     C233494   2.553   5.719   4.400  0.3334 -0.5216  0.0351
  198PVA     H333495   2.518   5.811   4.448 -0.8521 -2.1951  2.6020
  198PVA     O133496   2.464   5.692   4.287 -0.3820  0.3212 -0.3804
  198PVA     H433497   2.521   5.720   4.214 -1.7196 -2.4430 -2.6873
  198PVA     C333498   2.549   5.612   4.507  0.1051 -1.5633  1.1104
  198PVA     H533499   2.619   5.642   4.586  0.8021 -1.3907  0.4412
  198PVA     H633500   2.575   5.519   4.455 -0.1256  0.4405 -3.0682
  198PVA     C433501   2.415   5.593   4.572  0.5849  0.3723 -0.7991
  198PVA     H733502   2.365   5.687   4.600 -1.1181 -0.5855 -0.4231
  198PVA     H833503   2.353   5.551   4.491  5.0891 -0.4482 -4.2010
  198PVA     C533504   2.421   5.497   4.693 -0.4870  0.0771  0.7522
  198PVA     H933505   2.514   5.518   4.747 -0.4121  2.3934 -0.1548
  198PVA     O233506   2.429   5.375   4.632  0.0142  0.4184 -0.2142
  198PVA    H1033507   2.522   5.346   4.634  0.1465  0.7418 -1.1901
  198PVA     C633508   2.299   5.521   4.783 -0.1049 -0.9885  0.1597
  198PVA    H1133509   2.304   5.627   4.810  0.6409 -1.5537  2.4608
  198PVA    H1233510   2.211   5.505   4.719 -1.7092 -1.2024  2.2985
  198PVA     C733511   2.273   5.424   4.910 -0.0126 -0.5390 -1.6475
  198PVA    H1333512   2.289   5.321   4.876 -3.3251 -1.5252 -0.6700
  198PVA    H1433513   2.171   5.432   4.951 -0.2830 -3.4622 -1.5232
  198PVA     C833514   2.344   5.461   5.049  0.0717 -0.0719 -0.4535
  198PVA    H1533515   2.453   5.454   5.054  0.2345  2.5850  1.9438
  198PVA     O333516   2.313   5.600   5.071 -0.6511  1.3772 -0.4397
  198PVA    H1633517   2.218   5.616   5.061 -0.2397  3.9740 -0.8818
  198PVA     C933518   2.288   5.364   5.153 -0.9839 -0.2488  0.1646
  198PVA    H1733519   2.317   5.260   5.132 -1.6850 -0.5317  0.5500
  198PVA    H1833520   2.178   5.364   5.150 -1.0670  2.3471 -3.7401
  198PVA    C1033521   2.327   5.400   5.293 -1.1851 -0.8293  0.5795
  198PVA    H1933522   2.307   5.507   5.304  0.5252 -0.5818  1.7841
  198PVA    H2033523   2.263   5.357   5.370 -1.4067  2.1959  2.2406
  198PVA    C1133524   2.471   5.389   5.341 -0.4290 -0.3390  0.0545
  198PVA    H2133525   2.534   5.453   5.279  1.0142 -1.2821  0.5017
  198PVA     O433526   2.507   5.252   5.317 -0.8647  0.1893 -0.6842
  198PVA    H2233527   2.479   5.208   5.399 -1.5832  1.8302 -0.0046
  198PVA    C1233528   2.490   5.427   5.502 -0.0422 -0.4918  0.5449
  198PVA    H2333529   2.496   5.536   5.504  0.4273 -0.5232  0.7889
  198PVA    H2433530   2.397   5.394   5.552 -0.6230  0.3984  0.0688
  198PVA    C1333531   2.605   5.361   5.576  0.3139 -0.8274 -0.8980
  198PVA    H2533532   2.556   5.263   5.580  0.6697 -0.9905 -0.4256
  198PVA    H2633533   2.698   5.364   5.520 -0.0167 -0.2184 -1.4198
  198PVA    C1433534   2.626   5.416   5.716 -0.1642  0.0578 -0.7845
  198PVA    H2733535   2.527   5.449   5.750  0.1352  3.5175 -2.8434
  198PVA     O533536   2.667   5.307   5.795  0.7560 -0.6526  0.5027
  198PVA    H2833537   2.665   5.230   5.736 -1.9657 -0.2513 -0.0264
  198PVA    C1533538   2.702   5.537   5.736 -0.2379  0.1442 -0.1112
  198PVA    H2933539   2.673   5.611   5.660 -0.3729  1.0599  0.8064
  198PVA    H3033540   2.804   5.509   5.707  1.3845  1.1772  3.9769
  198PVA    C1633541   2.678   5.626   5.862 -0.3740  0.5832 -0.7749
  198PVA    H3133542   2.701   5.731   5.837  1.9742  0.2622 -0.2017
  198PVA    H3233543   2.576   5.618   5.901 -0.3911 -0.8145 -1.0700
  198PVA    C1733544   2.769   5.586   5.994  0.3877 -0.7236 -0.3400
  198PVA    H3333545   2.867   5.631   5.971  0.6448 -1.4460 -0.6878
  198PVA     O633546   2.778   5.440   6.004 -0.1096  0.2965 -0.1022
  198PVA    H3433547   2.732   5.407   5.924 -0.0317 -0.1268  0.0246
  198PVA    C1833548   2.718   5.650   6.128 -0.3295 -0.6346  1.5032
  198PVA    H3533549   2.615   5.615   6.147  0.0999 -1.9150  1.6054
  198PVA    H3633550   2.795   5.599   6.187 -2.8286 -3.0564  2.9438
  198PVA    C1933551   2.721   5.806   6.146  0.4437 -1.7297 -0.8625
  198PVA    H3733552   2.661   5.859   6.071  3.9704  2.0832 -1.3390
  198PVA    H3833553   2.819   5.853   6.139  0.5252 -2.0747 -2.3678
  198PVA    C2033554   2.646   5.860   6.272  0.8834 -0.6262 -0.0798
  198PVA    H3933555   2.669   5.781   6.346 -2.3730 -0.7712  0.9048
  198PVA     O733556   2.505   5.878   6.251  0.0646 -0.0220 -0.2327
  198PVA    H4033557   2.453   5.922   6.321 -2.1678 -2.4983 -0.1693
  198PVA    C2133558   2.696   5.993   6.339  0.0247 -1.2592 -0.3252
  198PVA    H4133559   2.657   6.068   6.270 -0.4407  0.3331  1.5726
  198PVA    H4233560   2.805   5.992   6.334 -0.0025 -1.0755 -1.1610
  198PVA    C2233561   2.645   6.034   6.479 -0.3758  0.5708  0.3457
  198PVA    H4333562   2.544   6.069   6.453 -0.5462 -0.0347  0.1935
  198PVA    H4433563   2.631   5.950   6.548  2.9601 -1.9487 -1.7351
  198PVA    C2333564   2.727   6.137   6.549  0.2422 -0.0595 -1.1176
  198PVA    H4533565   2.822   6.155   6.496 -0.1695  1.3226 -1.4417
  198PVA     O833566   2.665   6.262   6.549 -0.0007  0.6861 -0.1790
  198PVA    H4633567   2.586   6.252   6.493 -2.1430  2.0579  2.3636
  198PVA    C2433568   2.772   6.076   6.687 -0.0713 -0.2814  1.2663
  198PVA    H4733569   2.687   6.093   6.755 -0.4034  0.0048  0.7898
  198PVA    H4833570   2.776   5.967   6.684 -1.3477 -0.3771 -2.7785
  198PVA    C2533571   2.908   6.136   6.737  0.2951  0.3130  0.1041
  198PVA    H4933572   2.894   6.235   6.782  1.5311  1.3891 -1.7068
  198PVA    H5033573   2.955   6.154   6.639  2.8803 -0.8814  1.0396
  198PVA    C2633574   2.988   6.028   6.812 -0.5992 -1.6848 -0.1507
  198PVA    H5133575   3.011   5.941   6.750  2.8384 -0.3107 -1.0492
  198PVA     O933576   2.917   5.983   6.936 -0.3752  0.6235  1.0701
  198PVA    H5233577   2.952   6.009   7.023  1.0205  0.2182  0.6609
  198PVA    C2733578   3.127   6.073   6.872 -0.1836  1.0867 -0.5473
  198PVA    H5333579   3.184   6.090   6.779  0.9692  2.6721  0.4019
  198PVA    H5433580   3.179   5.982   6.905  0.5059  1.9368  0.7694
  198PVA    C2833581   3.153   6.198   6.983  0.4673  0.8356  0.9292
  198PVA    H5533582   3.257   6.229   6.967  1.1660 -2.1863 -1.1105
  198PVA    H5633583   3.077   6.277   6.973 -2.4108 -1.9195 -0.7664
  198PVA    C2933584   3.139   6.170   7.126 -0.6317  1.2598 -0.5401
  198PVA    H5733585   3.224   6.111   7.162 -0.3214  0.8079 -1.9398
  198PVA    O1033586   3.009   6.104   7.164 -1.1895 -0.0490 -0.0322
  198PVA    H5833587   2.954   6.182   7.185  2.3091  3.0409 -1.1940
  198PVA    C3033588   3.164   6.302   7.204 -0.9414 -0.2709 -0.1297
  198PVA    H5933589   3.270   6.329   7.212 -1.5584  2.1173  0.9543
  198PVA    H6033590   3.107   6.382   7.156  2.4002  1.4891 -1.4449
  198PVA    C3133591   3.125   6.297   7.359  0.5267 -0.4272  1.0131
  198PVA    H6133592   3.016   6.299   7.375 -0.1151  0.3434 -2.5732
  198PVA    H6233593   3.183   6.215   7.404  0.9626 -0.1115  1.0278
  198PVA    C3233594   3.167   6.433   7.422 -0.4382 -0.5649  0.0993
  198PVA    H6333595   3.276   6.449   7.422 -0.2799 -1.5364 -0.7433
  198PVA    O1133596   3.101   6.539   7.347  1.1581 -0.3743  0.7666
  198PVA    H6433597   3.014   6.521   7.307  1.3974  2.3813 -1.3982
  198PVA    C3333598   3.127   6.426   7.569  1.2048  0.1467  0.6064
  198PVA    H6533599   3.018   6.424   7.568  1.1959  0.1312  1.4329
  198PVA    H6633600   3.170   6.332   7.608 -2.0061 -0.9142  1.8879
  198PVA    C3433601   3.158   6.555   7.654  0.4934  0.1600  0.4423
  198PVA    H6733602   3.264   6.539   7.677  0.5691  2.1895  1.7745
  198PVA    H6833603   3.156   6.651   7.601  1.0548 -0.4924 -0.8190
  198PVA    C3533604   3.076   6.559   7.775  0.1692 -0.1954  0.1760
  198PVA    H6933605   3.051   6.459   7.814 -0.4216 -2.1021 -4.4143
  198PVA    O1233606   2.945   6.607   7.738 -0.9888  0.2566  0.9449
  198PVA    H7033607   2.932   6.664   7.816  0.7521 -0.3785  1.7705
  198PVA    C3633608   3.132   6.653   7.891 -0.4691  0.6814 -0.2225
  198PVA    H7133609   3.065   6.659   7.977 -0.7295  0.0184 -0.3741
  198PVA    H7233610   3.226   6.605   7.923 -0.9839 -0.7954 -0.8229
  198PVA    C3733611   3.136   6.809   7.863 -0.3517 -0.4061 -0.0916
  198PVA    H7333612   3.204   6.853   7.790  1.2878  0.0263  1.6181
  198PVA    H7433613   3.036   6.836   7.827 -0.0098  0.8539 -0.1182
  198PVA    C3833614   3.171   6.885   8.006  0.9830 -1.5467  0.9488
  198PVA    H7533615   3.095   6.846   8.074 -1.3386 -4.2074 -2.7470
  198PVA    O1333616   3.291   6.851   8.055 -0.2243 -0.2288 -1.1170
  198PVA    H7633617   3.358   6.917   8.030 -0.5941  0.3749 -0.5594
  198PVA    C3933618   3.163   7.041   8.018 -0.6175  0.6686  0.7671
  198PVA    H7733619   3.061   7.072   7.994 -0.6727 -0.8384 -1.1256
  198PVA    H7833620   3.223   7.099   7.946  0.5992 -0.3070  0.9720
  198PVA    C4033621   3.184   7.105   0.067  0.3046 -0.1784 -0.2768
  198PVA    H7933622   3.154   7.030   0.141  0.6343  0.1516  0.1954
  198PVA    H8033623   3.293   7.119   0.072  0.2090  1.8855 -2.2479
  198PVA    C4133624   3.104   7.235   0.091 -1.1964 -0.8897  0.7693
  198PVA    H8133625   2.996   7.219   0.080 -1.3713  0.1805  0.8582
  198PVA    O1433626   3.137   7.333   8.095 -0.6554 -0.4447  0.4974
  198PVA    H8233627   3.076   7.314   8.022  1.2605  1.1091 -1.6136
  198PVA    C4233628   3.105   7.305   0.233  0.2723 -0.8407 -1.2429
  198PVA    H8333629   3.203   7.317   0.282 -0.1370 -0.3069 -0.5340
  198PVA    H8433630   3.066   7.407   0.224  3.7824  0.8273  0.5572
  198PVA    C4333631   3.002   7.228   0.327  0.3308  0.2890  0.1863
  198PVA    H8533632   2.906   7.203   0.279  0.4331 -1.8400  0.9997
  198PVA    H8633633   3.044   7.127   0.332 -1.9257 -0.7642 -0.5800
  198PVA    C4433634   2.992   7.270   0.476 -0.2649 -0.3673 -0.2915
  198PVA    H8733635   3.091   7.247   0.518 -0.5161 -1.8032 -0.4138
  198PVA    O1533636   2.895   7.181   0.522 -0.3063  0.4285  0.1042
  198PVA    H8833637   2.829   7.158   0.455 -1.4661  3.0831  0.1925
  198PVA    C4533638   2.938   7.407   0.517  0.0943  0.5724 -0.2134
  198PVA    H8933639   2.830   7.400   0.496 -0.0747  2.4122 -0.0980
  198PVA    H9033640   2.993   7.485   0.463  0.7330 -2.1081 -3.8652
  198PVA    C4633641   2.965   7.419   0.671 -0.0274 -0.0873 -0.4736
  198PVA    H9133642   2.917   7.333   0.720  1.5465 -1.0065 -0.4748
  198PVA    H9233643   3.073   7.405   0.682 -0.2300 -3.2087 -1.2815
  198PVA    C4733644   2.909   7.535   0.739 -0.3303  0.3932 -0.8847
  198PVA    H9333645   2.800   7.530   0.746 -0.3367  0.7043 -0.7500
  198PVA    O1633646   2.949   7.652   0.671 -0.5789  0.6662  0.4836
  198PVA    H9433647   2.905   7.659   0.584  3.2551  1.2727 -1.6399
  198PVA    C4833648   2.972   7.540   0.880  0.0922 -0.0192  0.1093
  198PVA    H9533649   2.970   7.441   0.928  0.4569  1.0707  2.5616
  198PVA    H9633650   3.078   7.568   0.873 -0.4420  2.6585  1.3379
  198PVA    C4933651   2.918   7.660   0.975 -0.0389  0.9589  0.3420
  198PVA    H9733652   2.812   7.671   0.949 -0.5589 -2.4487  0.5478
  198PVA    H9833653   2.974   0.063   0.943  0.6821  0.7230  0.9406
  198PVA    C5033654   2.944   7.628   1.120 -0.2691  0.0563  0.3400
  198PVA    H9933655   3.037   7.572   1.103 -0.9547 -0.3249 -2.6535
  198PVA    O1733656   2.831   7.555   1.174 -0.7867 -0.5411  0.3316
  198PVA   H10033657   2.825   7.466   1.135 -2.7645 -0.3539  0.1236
  198PVA    C5133658   2.959   0.054   1.219 -0.5842 -0.6433 -0.3805
  198PVA   H10133659   3.012   0.139   1.173 -0.5874  0.0910  0.9264
  198PVA   H10233660   3.030   0.040   1.301 -1.0578  0.7270  0.3002
  199PVA     C133661   3.039   6.005   4.056  0.0934  0.1532  0.5739
  199PVA     H133662   3.026   6.042   3.953  0.9901  0.0476  0.4215
  199PVA     H233663   3.075   6.086   4.121  1.7341  1.4486 -1.7989
  199PVA     C233664   3.138   5.881   4.035 -0.4987  0.0512 -0.2683
  199PVA     H333665   3.123   5.821   4.126 -1.4036  0.1335 -0.3608
  199PVA     O133666   3.112   5.812   3.916 -0.2082 -0.9479  0.5052
  199PVA     H433667   3.017   5.834   3.919  0.2009  1.2028  4.2334
  199PVA     C333668   3.271   5.944   4.023 -0.4475  0.0369 -0.1493
  199PVA     H533669   3.280   6.021   4.101 -0.9509 -0.4938  0.4356
  199PVA     H633670   3.267   6.004   3.931  2.0939 -1.1829 -1.1368
  199PVA     C433671   3.382   5.835   4.044 -0.1984  0.4491  0.5730
  199PVA     H733672   3.409   5.868   4.145 -0.3684  0.6935  0.5375
  199PVA     H833673   3.332   5.737   4.044  2.7512 -1.1959 -0.0795
  199PVA     C533674   3.516   5.847   3.957  0.1679 -0.3793 -0.2998
  199PVA     H933675   3.576   5.756   3.970  5.1938  2.8394  2.3062
  199PVA     O233676   3.456   5.871   3.826 -0.3727  0.2369  0.3917
  199PVA    H1033677   3.362   5.850   3.841  0.5819 -2.4287  3.6893
  199PVA     C633678   3.619   5.958   4.001  0.7979  0.1042  0.3405
  199PVA    H1133679   3.568   6.055   4.002  1.4374  0.4368  0.6152
  199PVA    H1233680   3.682   5.942   4.089  0.2103  1.2659  1.0006
  199PVA     C733681   3.718   5.955   3.892 -0.9450 -0.0384  0.0571
  199PVA    H1333682   3.677   6.000   3.801  2.6632  1.6439 -0.9343
  199PVA    H1433683   3.746   5.851   3.872 -1.4528 -0.3915  1.1044
  199PVA     C833684   3.852   6.021   3.933 -0.7135 -0.8591  0.6406
  199PVA    H1533685   3.913   5.937   3.970  3.2845  1.3642 -0.2575
  199PVA     O333686   3.846   6.121   4.034 -0.7260  0.5362 -0.5844
  199PVA    H1633687   3.933   6.108   4.075 -0.8042 -1.6494 -0.9859
  199PVA     C933688   3.933   6.080   3.813  1.4101 -0.7519 -0.0980
  199PVA    H1733689   3.853   6.144   3.774  1.7633 -0.5341 -0.4745
  199PVA    H1833690   3.944   6.015   3.725  0.3664  0.2316 -0.9930
  199PVA    C1033691   4.037   6.191   3.826 -0.8077  0.4108 -0.0790
  199PVA    H1933692   3.974   6.274   3.859 -1.2590  0.4245 -0.9581
  199PVA    H2033693   4.125   6.173   3.889  0.2496 -1.3520 -1.9172
  199PVA    C1133694   4.096   6.227   3.691 -0.2177 -0.2680  0.1444
  199PVA    H2133695   4.013   6.259   3.627  2.8960 -1.8753 -5.3269
  199PVA     O433696   4.169   6.120   3.633  0.1436  0.7527  0.3166
  199PVA    H2233697   4.208   6.143   3.547  1.6975 -3.5014 -0.3711
  199PVA    C1233698   4.180   6.360   3.710  0.4017  0.4348 -1.3354
  199PVA    H2333699   4.207   6.383   3.607 -1.6342  0.6829 -1.8427
  199PVA    H2433700   4.125   6.448   3.747 -0.1790 -1.8156  4.1271
  199PVA    C1333701   4.307   6.342   3.794 -0.0112 -0.4736  0.3287
  199PVA    H2533702   4.387   6.302   3.729 -0.7743 -0.1133 -0.8590
  199PVA    H2633703   4.299   6.262   3.868  2.0001 -2.0156 -0.9669
  199PVA    C1433704   4.364   6.474   3.846  0.8492  0.6743  0.5273
  199PVA    H2733705   4.335   6.548   3.771  2.8036  2.1102  1.0976
  199PVA     O533706   4.297   6.505   3.969 -0.4900  1.0337 -0.6597
  199PVA    H2833707   4.351   6.495   4.049 -1.0103  0.4117 -0.3754
  199PVA    C1533708   4.519   6.459   3.879  0.1244  0.1910 -1.0137
  199PVA    H2933709   4.520   6.372   3.946 -4.5414 -1.9936 -3.3007
  199PVA    H3033710   4.589   6.433   3.799 -2.0802 -0.3541 -2.8836
  199PVA    C1633711   4.584   6.590   3.930  0.1830  0.9474 -0.7115
  199PVA    H3133712   4.521   6.632   4.010 -0.7805 -2.1056  0.2485
  199PVA    H3233713   4.678   6.561   3.979  0.1038  0.3660 -0.9009
  199PVA    C1733714   4.619   6.701   3.822 -1.2608 -0.1522 -0.6861
  199PVA    H3333715   4.657   6.651   3.732 -2.2196 -0.7161 -0.7858
  199PVA     O633716   4.504   6.774   3.789 -0.3643 -0.7562 -0.4932
  199PVA    H3433717   4.435   6.762   3.857  0.1556  0.1553  0.2219
  199PVA    C1833718   4.730   6.799   3.863 -0.7460 -0.3557  0.4060
  199PVA    H3533719   4.703   6.864   3.947 -1.4015  2.2993 -1.7257
  199PVA    H3633720   4.808   6.731   3.901 -0.4125 -0.1661  0.0745
  199PVA    C1933721   4.760   6.913   3.746 -0.1725  0.3825  0.0374
  199PVA    H3733722   4.667   6.914   3.687  0.0881 -0.9997 -0.4312
  199PVA    H3833723   4.840   6.859   3.694  0.1390 -2.6609  3.3246
  199PVA    C2033724   4.788   7.054   3.794 -0.0499 -0.8802  1.0978
  199PVA    H3933725   4.699   7.084   3.852  2.3167  0.7599  4.1836
  199PVA     O733726   4.927   7.049   3.854 -0.3227  0.9344  0.0148
  199PVA    H4033727   4.973   6.980   3.802  0.0121  1.6660 -0.6832
  199PVA    C2133728   4.790   7.158   3.679  0.3545  0.6479 -0.4502
  199PVA    H4133729   4.882   7.144   3.622  2.4116  1.4889  2.4291
  199PVA    H4233730   4.698   7.146   3.621 -0.7977  3.4764  0.6105
  199PVA    C2233731   4.808   7.295   3.732  0.0737 -0.3552  1.0166
  199PVA    H4333732   4.823   7.299   3.840 -0.0938 -2.1133  1.1251
  199PVA    H4433733   4.899   7.336   3.685 -0.1025 -0.6944  0.3681
  199PVA    C2333734   4.698   7.394   3.687  0.2606 -0.0190 -0.7563
  199PVA    H4533735   4.606   7.343   3.718  1.9104 -0.4828  4.1644
  199PVA     O833736   4.708   7.414   3.552 -0.3919  0.4489  0.3956
  199PVA    H4633737   4.617   7.449   3.541 -0.2946  0.6188  0.1374
  199PVA    C2433738   4.696   7.530   3.766 -0.1567 -0.5640  0.1791
  199PVA    H4733739   4.703   7.496   3.870 -3.1906  0.7493  0.9257
  199PVA    H4833740   4.779   7.594   3.734  0.7610 -2.1432 -0.7261
  199PVA    C2533741   4.557   7.609   3.749 -0.1791 -0.4684 -0.0276
  199PVA    H4933742   4.530   7.652   3.846  4.2196 -0.0717  1.2184
  199PVA    H5033743   4.471   7.549   3.716 -1.1751  2.0964 -2.5355
  199PVA    C2633744   4.570   0.043   3.647  0.4774  1.5286 -0.2539
  199PVA    H5133745   4.596   0.004   3.548  5.7776  2.3988  0.4846
  199PVA     O933746   4.692   0.117   3.663 -0.1350 -0.2177  0.2685
  199PVA    H5233747   4.692   0.180   3.589 -2.4068 -0.3844  0.0524
  199PVA    C2733748   4.440   0.130   3.663  0.2928 -0.4698  0.5953
  199PVA    H5333749   4.450   0.188   3.756  0.8395  1.5039 -0.6335
  199PVA    H5433750   4.344   0.079   3.674  0.0967  0.4410  4.3754
  199PVA    C2833751   4.440   0.230   3.547 -0.6326 -1.2734  0.5739
  199PVA    H5533752   4.522   0.290   3.588 -2.8705  2.8350 -0.4212
  199PVA    H5633753   4.470   0.199   3.446 -0.5834  4.9185 -1.7254
  199PVA    C2933754   4.333   0.343   3.527  0.5707  0.1498 -0.2979
  199PVA    H5733755   4.325   0.388   3.627 -0.5374 -0.8483  0.0948
  199PVA    O1033756   4.379   0.438   3.438 -0.1078  0.8270  0.7686
  199PVA    H5833757   4.469   0.460   3.467  1.4419 -1.9422 -1.4954
  199PVA    C3033758   4.195   0.283   3.489  0.5247 -0.3203 -0.4354
  199PVA    H5933759   4.227   0.242   3.392  1.2750 -2.6536  0.7218
  199PVA    H6033760   4.176   0.193   3.548  1.1686  0.1491  0.5162
  199PVA    C3133761   4.059   0.379   3.485 -0.5724  0.1665  0.3540
  199PVA    H6133762   4.024   0.414   3.582  1.5582  3.0394  0.2279
  199PVA    H6233763   4.075   0.472   3.429 -2.0867 -1.0429 -2.2840
  199PVA    C3233764   3.929   0.314   3.426  0.0963 -0.1153 -0.5090
  199PVA    H6333765   3.941   0.205   3.431  2.1319 -0.0211 -1.9053
  199PVA    O1133766   3.806   0.357   3.483 -0.5352  0.4263  0.2402
  199PVA    H6433767   3.757   0.412   3.419 -0.3081 -0.2883 -0.5774
  199PVA    C3333768   3.918   0.328   3.279  0.0579  0.5917 -0.6326
  199PVA    H6533769   4.013   0.305   3.229 -0.6434 -2.6243 -0.7115
  199PVA    H6633770   3.888   0.430   3.253 -0.3258  0.3172 -1.2714
  199PVA    C3433771   3.828   0.233   3.199  1.0123  0.1413  0.7984
  199PVA    H6733772   3.890   0.143   3.189  1.1282  0.5326 -4.5954
  199PVA    H6833773   3.736   0.212   3.255 -0.5188  3.9017 -0.0001
  199PVA    C3533774   3.787   0.304   3.060 -0.3834  0.0860  1.2420
  199PVA    H6933775   3.724   0.387   3.092 -1.9008  0.1513 -1.5806
  199PVA    O1233776   3.903   0.360   2.998  0.6191  0.3171 -0.1558
  199PVA    H7033777   3.970   0.290   2.990  2.8630  2.3312 -0.3211
  199PVA    C3633778   3.698   0.224   2.970 -0.8167 -0.3463 -0.2160
  199PVA    H7133779   3.720   0.117   2.982  2.1889  0.3383  1.1952
  199PVA    H7233780   3.605   0.239   3.027 -1.2741 -0.7859 -0.8376
  199PVA    C3733781   3.658   0.278   2.829  0.0176 -0.2732  0.2581
  199PVA    H7333782   3.753   0.297   2.777 -1.2959 -0.5852 -2.4115
  199PVA    H7433783   3.626   0.382   2.833  0.2165 -0.2286  0.7225
  199PVA    C3833784   3.581   0.206   2.714  0.0150 -0.6651 -0.5448
  199PVA    H7533785   3.479   0.197   2.753  1.5487 -1.1718  3.9397
  199PVA    O1333786   3.588   0.297   2.599 -0.9945 -0.0041  0.7971
  199PVA    H7633787   3.631   0.246   2.528  0.5240  0.5532  1.2834
  199PVA    C3933788   3.642   0.065   2.688  0.3311  1.0185  0.3698
  199PVA    H7733789   3.751   0.071   2.682  0.5675  1.1372  3.2893
  199PVA    H7833790   3.633   7.684   2.775  0.6636  0.3140 -0.1207
  199PVA    C4033791   3.579   7.673   2.567 -0.1779 -0.7455 -1.3439
  199PVA    H7933792   3.626   7.574   2.563  0.0562 -0.8242  1.2825
  199PVA    H8033793   3.471   7.658   2.582 -0.5147  1.8798 -0.6831
  199PVA    C4133794   3.608   0.029   2.423 -0.0028 -0.9835  1.0716
  199PVA    H8133795   3.537   0.108   2.397  2.9847  0.8918 -2.5938
  199PVA    O1433796   3.742   0.074   2.418  0.0552  1.1143 -0.1213
  199PVA    H8233797   3.800   0.012   2.467 -0.2792  0.6477 -0.3064
  199PVA    C4233798   3.569   7.598   2.321  0.5889  0.8983  0.7445
  199PVA    H8333799   3.590   7.639   2.222 -0.9564 -1.7677 -0.8028
  199PVA    H8433800   3.621   7.504   2.342 -0.2802  0.0726 -0.6636
  199PVA    C4333801   3.412   7.565   2.301 -1.1608 -0.0139 -1.0011
  199PVA    H8533802   3.378   7.568   2.197 -3.9526 -0.9535 -0.1924
  199PVA    H8633803   3.348   7.647   2.333  0.1632  0.2699  1.1642
  199PVA    C4433804   3.367   7.439   2.370 -0.5270 -0.6455 -0.0686
  199PVA    H8733805   3.351   7.450   2.478 -3.8265  0.7959 -0.5957
  199PVA    O1533806   3.429   7.321   2.322  0.1870  0.3788  0.6971
  199PVA    H8833807   3.520   7.353   2.307 -0.3046  2.0187  1.0873
  199PVA    C4533808   3.218   7.410   2.327  0.8369 -1.0165 -0.6789
  199PVA    H8933809   3.144   7.489   2.343 -1.1797 -2.9848  0.1288
  199PVA    H9033810   3.217   7.416   2.217 -0.3905  0.5629 -0.6079
  199PVA    C4633811   3.160   7.271   2.362 -0.5470 -0.2640  0.0436
  199PVA    H9133812   3.201   7.228   2.454  2.4104 -1.0510 -1.5383
  199PVA    H9233813   3.195   7.198   2.289  0.3267 -1.2288  1.3786
  199PVA    C4733814   3.008   7.257   2.356  0.5621 -0.1899  0.4109
  199PVA    H9333815   2.965   7.330   2.287 -0.6180  3.6662  4.7307
  199PVA    O1633816   2.951   7.282   2.488  0.3157 -0.5747  0.1912
  199PVA    H9433817   2.959   7.379   2.492 -0.9791 -0.4839  1.1347
  199PVA    C4833818   2.970   7.110   2.317  1.0579 -0.4426 -0.5275
  199PVA    H9533819   2.982   7.136   2.212  1.1957 -0.4697 -0.5192
  199PVA    H9633820   3.046   7.031   2.329 -1.5074 -2.7775  1.9403
  199PVA    C4933821   2.826   7.047   2.356  0.3626 -0.1443 -1.0407
  199PVA    H9733822   2.740   7.103   2.317 -0.1405  0.2081  0.5209
  199PVA    H9833823   2.826   7.065   2.464  2.7244 -1.7199 -0.7007
  199PVA    C5033824   2.810   6.900   2.331 -0.8852  0.0347  0.0953
  199PVA    H9933825   2.873   6.845   2.402 -3.3216 -0.0984  2.2954
  199PVA    O1733826   2.856   6.870   2.198  0.0580  0.1330 -0.1407
  199PVA   H10033827   2.811   6.926   2.132  0.3846  1.2810  0.5802
  199PVA    C5133828   2.658   6.859   2.354 -0.0842  0.4916  0.7684
  199PVA   H10133829   2.600   6.930   2.294 -0.8847  2.0361  3.2401
  199PVA   H10233830   2.637   6.887   2.458 -1.5494 -0.7032  0.8293
  200PVA     C133831   3.174   0.078   1.922  0.3162  0.0228  0.7320
  200PVA     H133832   3.216   0.179   1.932 -2.3099  1.4445 -1.3528
  200PVA     H233833   3.238   0.003   1.970 -0.3952 -1.5783 -0.7261
  200PVA     C233834   3.167   0.057   1.770  0.2518  0.7536  0.3279
  200PVA     H333835   3.078   0.110   1.732 -1.1795 -3.2394 -2.5507
  200PVA     O133836   3.149   7.618   1.729  0.1297  0.1282 -0.0833
  200PVA     H433837   3.226   7.559   1.742 -0.8046 -0.8536  1.2904
  200PVA     C333838   3.291   0.112   1.689  0.0831 -0.5863  0.1534
  200PVA     H533839   3.307   0.221   1.692 -1.5140 -0.1601 -3.0901
  200PVA     H633840   3.257   0.099   1.586 -1.4154  0.4412  0.4878
  200PVA     C433841   3.414   0.034   1.690 -1.3794  0.5943 -0.6779
  200PVA     H733842   3.472   0.066   1.778 -3.9981 -1.0032  1.7933
  200PVA     H833843   3.378   7.615   1.689  0.8944 -0.2676 -0.5100
  200PVA     C533844   3.492   0.053   1.560 -1.5005  0.0553  1.7490
  200PVA     H933845   3.429   0.005   1.484 -0.1334 -2.8737  2.3082
  200PVA     O233846   3.527   0.193   1.529  0.3128 -0.1369  0.3494
  200PVA    H1033847   3.548   0.204   1.435  0.2184  1.1157  0.4603
  200PVA     C633848   3.626   7.656   1.561 -0.2898  0.9405  0.5778
  200PVA    H1133849   3.698   0.000   1.639  0.0327 -1.9586  1.4929
  200PVA    H1233850   3.607   7.549   1.577  0.6154 -0.0500 -3.6593
  200PVA     C733851   3.700   7.662   1.420  0.1077 -0.2468 -0.7174
  200PVA    H1333852   3.729   0.082   1.404 -1.4058  0.9762  3.3862
  200PVA    H1433853   3.618   7.643   1.349 -1.0751  0.3358  0.4368
  200PVA     C833854   3.821   7.573   1.390 -0.6790  0.2862 -1.1364
  200PVA    H1533855   3.905   7.611   1.450  0.5231 -2.1653 -1.1356
  200PVA     O333856   3.863   7.609   1.254  0.5826  0.6601 -0.8357
  200PVA    H1633857   3.777   7.625   1.210  0.1753  3.8869  0.7831
  200PVA     C933858   3.798   7.418   1.405  0.8788  0.2761  0.7609
  200PVA    H1733859   3.707   7.394   1.461  0.7370  2.5271  1.5964
  200PVA    H1833860   3.856   7.362   1.480  1.1638  0.2358  0.5102
  200PVA    C1033861   3.792   7.352   1.265  0.6236 -0.1120  0.2009
  200PVA    H1933862   3.733   7.421   1.204  0.4172 -1.0538 -0.6899
  200PVA    H2033863   3.892   7.344   1.220  0.7486 -4.4938  0.7712
  200PVA    C1133864   3.730   7.208   1.256 -0.9633  0.5013  0.5038
  200PVA    H2133865   3.631   7.213   1.302 -1.3105 -2.6100  0.2906
  200PVA     O433866   3.736   7.155   1.115 -0.1215 -1.2351 -0.2133
  200PVA    H2233867   3.828   7.140   1.085 -0.3023 -5.1529  0.5860
  200PVA    C1233868   3.823   7.123   1.339 -0.7994  0.6690  0.9330
  200PVA    H2333869   3.822   7.163   1.441 -1.0728  0.5380  0.9811
  200PVA    H2433870   3.926   7.125   1.300 -0.1085 -1.2357  2.4909
  200PVA    C1333871   3.779   6.971   1.343  0.4294 -0.4509  0.2871
  200PVA    H2533872   3.675   6.974   1.379  1.0219 -1.7911  2.2753
  200PVA    H2633873   3.759   6.938   1.241  3.0733  0.0262 -0.4611
  200PVA    C1433874   3.863   6.881   1.439  0.4908  1.0918  0.5154
  200PVA    H2733875   3.962   6.920   1.409  0.0676  0.7699 -1.4759
  200PVA     O533876   3.839   6.918   1.576 -0.2169 -0.3081 -0.7420
  200PVA    H2833877   3.787   6.851   1.623 -0.3957  0.6902  0.5579
  200PVA    C1533878   3.853   6.730   1.395  0.0830  0.2471 -0.6672
  200PVA    H2933879   3.869   6.721   1.286  1.9375 -1.4059 -0.3222
  200PVA    H3033880   3.748   6.701   1.411 -0.1806  2.4544  2.4319
  200PVA    C1633881   3.934   6.626   1.476 -0.4251 -0.2509  0.0054
  200PVA    H3133882   4.041   6.646   1.458  1.0300 -1.0223  5.8968
  200PVA    H3233883   3.900   6.649   1.578 -1.3008  0.5441 -0.4462
  200PVA    C1733884   3.912   6.471   1.475  0.3873 -0.3985  0.3854
  200PVA    H3333885   3.807   6.444   1.492  0.5128 -1.7063 -0.7967
  200PVA     O633886   3.942   6.427   1.344 -0.2049 -0.1631 -0.5002
  200PVA    H3433887   4.039   6.427   1.331 -0.3987 -1.2567 -2.2454
  200PVA    C1833888   3.999   6.384   1.581  0.1036 -0.2795 -1.8114
  200PVA    H3533889   3.991   6.276   1.564 -1.9900 -0.3636 -0.6264
  200PVA    H3633890   4.098   6.420   1.549 -0.0311  4.5204  1.9362
  200PVA    C1933891   4.011   6.413   1.729  1.0363  0.1627 -0.2346
  200PVA    H3733892   4.013   6.520   1.753  5.4485  0.7889 -2.2958
  200PVA    H3833893   3.938   6.353   1.784 -1.2875  4.0234  1.3089
  200PVA    C2033894   4.148   6.349   1.783  0.5744  0.1382  0.4617
  200PVA    H3933895   4.233   6.410   1.749  0.5397  0.5384  1.0752
  200PVA     O733896   4.179   6.219   1.718 -0.1219 -0.1279  0.6111
  200PVA    H4033897   4.174   6.245   1.624  0.0098  1.9502  1.1356
  200PVA    C2133898   4.165   6.352   1.934  0.0899 -0.2929  0.3333
  200PVA    H4133899   4.089   6.295   1.988  0.5811 -1.5808 -0.2945
  200PVA    H4233900   4.158   6.459   1.958  3.3043  0.8013 -2.8091
  200PVA    C2233901   4.304   6.316   1.970  0.1765 -0.2970  0.0138
  200PVA    H4333902   4.370   6.398   1.941 -0.0033  1.3092  3.5784
  200PVA    H4433903   4.321   6.218   1.924 -1.5270 -0.9998  0.7767
  200PVA    C2333904   4.322   6.300   2.119 -0.1667 -0.1719 -0.4634
  200PVA    H4533905   4.233   6.247   2.157  2.2205 -5.0444 -0.8782
  200PVA     O833906   4.306   6.429   2.187  0.0138  0.4662 -0.5014
  200PVA    H4633907   4.290   6.410   2.281 -1.7303  1.5602 -0.5239
  200PVA    C2433908   4.447   6.230   2.151 -1.4175 -1.1274  0.1107
  200PVA    H4733909   4.431   6.122   2.155 -0.9973 -1.1591  2.7733
  200PVA    H4833910   4.528   6.250   2.080  0.3466 -1.5105  1.9017
  200PVA    C2533911   4.526   6.262   2.283  1.2280  0.2580 -1.2920
  200PVA    H4933912   4.548   6.370   2.286  0.0051  0.5823 -2.7490
  200PVA    H5033913   4.620   6.205   2.288  2.1584  1.7952  2.6830
  200PVA    C2633914   4.454   6.245   2.419  0.0184  0.7797 -0.8235
  200PVA    H5133915   4.356   6.290   2.402 -0.0874  0.3760 -1.3173
  200PVA     O933916   4.526   6.300   2.528 -0.7105  0.3141 -1.1036
  200PVA    H5233917   4.612   6.259   2.543 -1.8769 -1.5366  1.1313
  200PVA    C2733918   4.421   6.101   2.452  0.2898  0.8618 -0.9901
  200PVA    H5333919   4.518   6.051   2.466  0.4148  1.3400 -0.0449
  200PVA    H5433920   4.391   6.060   2.355  3.4560 -3.1383 -0.5119
  200PVA    C2833921   4.320   6.071   2.574 -0.3346  0.0116  0.8292
  200PVA    H5533922   4.218   6.105   2.553 -0.7612  0.6675  3.5991
  200PVA    H5633923   4.303   5.964   2.592 -3.1838 -0.0959 -1.7244
  200PVA    C2933924   4.368   6.132   2.708 -0.6921  0.7687  0.4283
  200PVA    H5733925   4.368   6.242   2.705  4.5871  1.0250 -2.2881
  200PVA    O1033926   4.501   6.093   2.747  0.2613  0.0163  0.5038
  200PVA    H5833927   4.549   6.094   2.662  1.7311 -1.6381  1.2625
  200PVA    C3033928   4.254   6.112   2.827  0.7810 -0.7092  0.0458
  200PVA    H5933929   4.236   6.004   2.822 -2.5999 -0.1859 -2.3384
  200PVA    H6033930   4.302   6.132   2.923  0.1612  1.1133  0.0252
  200PVA    C3133931   4.117   6.178   2.812  0.3283  0.1927  0.4803
  200PVA    H6133932   4.096   6.157   2.706  0.1910  0.7418  0.3972
  200PVA    H6233933   4.143   6.284   2.822 -3.0974  1.4687 -2.0663
  200PVA    C3233934   4.006   6.142   2.912  0.5827 -0.0690  0.0122
  200PVA    H6333935   4.035   6.190   3.006 -0.2851 -0.1926  0.3538
  200PVA    O1133936   3.997   6.001   2.939 -0.9305  0.0288  0.5968
  200PVA    H6433937   4.057   5.943   2.888  0.4272 -0.3321  2.5250
  200PVA    C3333938   3.872   6.211   2.876 -0.9129 -0.1576 -0.5866
  200PVA    H6533939   3.815   6.178   2.788 -0.8676  0.8040 -0.9887
  200PVA    H6633940   3.900   6.317   2.866  1.2792 -0.5565  0.5885
  200PVA    C3433941   3.766   6.190   2.999 -0.4396 -0.3918  0.7015
  200PVA    H6733942   3.757   6.293   3.036  2.0588  0.8477 -1.7879
  200PVA    H6833943   3.803   6.130   3.084 -1.3348 -1.2262  0.5277
  200PVA    C3533944   3.628   6.135   2.953  1.1080 -0.5033 -0.5469
  200PVA    H6933945   3.601   6.210   2.877  2.2753 -0.8771 -1.3610
  200PVA    O1233946   3.547   6.162   3.063  0.1681 -0.2630  0.3084
  200PVA    H7033947   3.589   6.120   3.141 -0.1516  0.0123  0.6348
  200PVA    C3633948   3.629   5.987   2.930  0.0288  1.2103  0.1924
  200PVA    H7133949   3.705   5.970   2.852 -0.7610  2.4065 -0.8844
  200PVA    H7233950   3.650   5.930   3.021  0.1407  3.5139  1.6719
  200PVA    C3733951   3.490   5.955   2.881 -0.0109  0.5654 -0.2643
  200PVA    H7333952   3.494   6.011   2.787  3.0212 -0.6497 -0.9774
  200PVA    H7433953   3.414   6.008   2.939  0.8791  0.4707  1.0227
  200PVA    C3833954   3.445   5.801   2.878 -0.3751  0.3342  0.4406
  200PVA    H7533955   3.481   5.754   2.970  2.1770  0.9050 -0.1784
  200PVA    O1333956   3.534   5.752   2.773  0.6612 -0.3245 -0.3757
  200PVA    H7633957   3.590   5.831   2.762  0.9341 -0.6272 -1.2514
  200PVA    C3933958   3.295   5.771   2.838  0.1476 -0.1534  0.7612
  200PVA    H7733959   3.288   5.771   2.729 -1.6955 -0.1048  0.8418
  200PVA    H7833960   3.232   5.849   2.883 -1.6171 -1.9181  1.5023
  200PVA    C4033961   3.239   5.636   2.895 -1.1547  0.1946 -0.3630
  200PVA    H7933962   3.252   5.651   3.002  0.8355  0.5386 -0.6181
  200PVA    H8033963   3.133   5.610   2.884 -1.6488  1.7752  0.3741
  200PVA    C4133964   3.322   5.514   2.854 -0.0682  0.2330 -0.7196
  200PVA    H8133965   3.426   5.531   2.822 -0.4665  0.5562 -1.9012
  200PVA    O1433966   3.315   5.429   2.968 -1.2169 -0.2867  0.1377
  200PVA    H8233967   3.395   5.451   3.019 -1.5620  0.5396  0.3302
  200PVA    C4233968   3.246   5.434   2.742 -0.8053  0.1290 -1.5783
  200PVA    H8333969   3.150   5.387   2.764 -0.6361 -0.0860 -1.2851
  200PVA    H8433970   3.308   5.346   2.720 -2.1787 -0.6533 -2.4701
  200PVA    C4333971   3.230   5.502   2.606 -0.0861  0.9552  0.2343
  200PVA    H8533972   3.241   5.415   2.540  0.8026  0.5808  0.8573
  200PVA    H8633973   3.314   5.568   2.583  1.6147 -1.3045 -0.3611
  200PVA    C4433974   3.092   5.569   2.571  0.2167  0.1820  0.1551
  200PVA    H8733975   3.051   5.604   2.666 -0.0729 -0.9354  0.4505
  200PVA    O1533976   3.018   5.457   2.528 -0.0127 -0.5511 -0.3344
  200PVA    H8833977   2.972   5.440   2.612  0.3721  2.0907  0.5188
  200PVA    C4533978   3.096   5.680   2.463 -0.2978  0.0636 -0.5979
  200PVA    H8933979   3.089   5.632   2.365  1.5644 -2.0324  0.2209
  200PVA    H9033980   3.192   5.732   2.468  1.0731 -2.4190  1.0364
  200PVA    C4633981   2.978   5.787   2.476  0.4059  0.4828 -0.0822
  200PVA    H9133982   2.884   5.731   2.474  1.9815 -2.3784 -0.1747
  200PVA    H9233983   2.983   5.832   2.576  1.9491  1.4837 -0.5698
  200PVA    C4733984   2.968   5.902   2.371  0.3281 -0.8979  0.0895
  200PVA    H9333985   3.049   5.974   2.392  0.0805 -0.0983 -1.5276
  200PVA    O1633986   2.989   5.867   2.233  0.9894  1.1108  0.7206
  200PVA    H9433987   3.059   5.801   2.243  0.5646  0.5008 -0.2186
  200PVA    C4833988   2.838   6.000   2.376  0.3245  0.6249 -0.2698
  200PVA    H9533989   2.752   5.950   2.331 -1.4137  2.5426  0.7501
  200PVA    H9633990   2.808   6.006   2.482  2.0332 -1.7157  0.4382
  200PVA    C4933991   2.859   6.138   2.307 -0.7844 -0.8040 -0.1096
  200PVA    H9733992   2.913   6.133   2.211  1.1626  0.3881  0.8675
  200PVA    H9833993   2.930   6.180   2.378 -1.4722 -0.1789  0.2271
  200PVA    C5033994   2.726   6.219   2.305  0.2402  0.1689  0.1064
  200PVA    H9933995   2.672   6.198   2.212  3.0506 -0.5446 -1.5090
  200PVA    O1733996   2.660   6.206   2.428  1.2923 -0.4001  0.8599
  200PVA   H10033997   2.629   6.291   2.464 -0.3261 -1.4143  2.0075
  200PVA    C5133998   2.769   6.364   2.298  0.2675 -0.7370  0.2398
  200PVA   H10133999   2.844   6.390   2.373  2.0355 -0.6386 -1.4651
  200PVA   H10234000   2.826   6.357   2.204 -1.3364 -0.4382 -0.7951
  201PVA     C134001   2.912   0.183   2.321  0.2661  1.7544 -1.1146
  201PVA     H134002   2.914   0.282   2.367 -2.4403  2.2503 -1.8795
  201PVA     H234003   2.808   0.183   2.285  0.4735 -0.3647 -1.8914
  201PVA     C234004   2.935   0.065   2.431 -0.2403 -0.0425  0.3031
  201PVA     H334005   3.032   0.019   2.408 -0.2600  0.5656 -1.0472
  201PVA     O134006   2.840   7.646   2.407 -0.1602  0.2388 -0.3904
  201PVA     H434007   2.768   7.682   2.352 -0.6691  0.9610  0.7193
  201PVA     C334008   2.907   0.103   2.576 -0.1763 -0.6721 -0.0220
  201PVA     H534009   2.808   0.149   2.565  1.6581  3.4250 -1.5412
  201PVA     H634010   2.972   0.191   2.587  0.1850 -0.9453  0.0265
  201PVA     C434011   2.944   0.023   2.707 -0.5976  0.0096  0.1733
  201PVA     H734012   2.907   7.608   2.679  0.3081 -0.0333 -0.9466
  201PVA     H834013   3.049   7.677   2.723 -0.2403  2.1205  2.4639
  201PVA     C534014   2.906   0.069   2.853 -0.0816 -0.0920  0.3468
  201PVA     H934015   2.800   0.063   2.879 -1.2452 -1.5016 -3.9384
  201PVA     O234016   2.943   0.204   2.855  0.2263 -0.4467 -0.1321
  201PVA    H1034017   3.018   0.214   2.794  2.3347  0.5637  2.3974
  201PVA     C634018   2.962   7.682   2.984  0.6068  0.3027 -0.8847
  201PVA    H1134019   3.002   7.582   2.961  0.4141  0.6598 -2.9445
  201PVA    H1234020   3.061   0.041   3.000  0.4371  0.0005  1.2608
  201PVA     C734021   2.866   7.666   3.115  1.3749  0.2272  0.8472
  201PVA    H1334022   2.787   7.599   3.080  0.7108  1.6711 -0.5563
  201PVA    H1434023   2.831   0.085   3.109 -1.3147 -0.6910 -2.5436
  201PVA     C834024   2.907   7.626   3.259  1.0257 -1.2803  0.8891
  201PVA    H1534025   2.842   7.540   3.283  0.1044 -1.1285 -0.9207
  201PVA     O334026   3.037   7.586   3.246 -0.7259 -0.0499 -0.1838
  201PVA    H1634027   3.043   7.496   3.283  1.5963 -0.8502 -2.2298
  201PVA     C934028   2.888   0.043   3.376 -0.2717  0.2016 -0.0806
  201PVA    H1734029   2.855   0.129   3.317  0.8927  0.6348 -0.1291
  201PVA    H1834030   2.983   0.021   3.427  0.3084  2.6716  0.0710
  201PVA    C1034031   2.780   0.010   3.477 -0.1221 -0.6292  0.0581
  201PVA    H1934032   2.684   0.027   3.426 -1.8939 -2.5405  2.4633
  201PVA    H2034033   2.768   7.585   3.482 -1.6360 -0.5262 -0.6184
  201PVA    C1134034   2.777   0.083   3.621  0.9942  0.6575  0.0003
  201PVA    H2134035   2.861   0.035   3.672  3.0462  3.2171 -0.7725
  201PVA     O434036   2.817   0.214   3.605 -0.5604  0.0536  0.7426
  201PVA    H2234037   2.742   0.270   3.631 -0.7412  0.7655 -1.1897
  201PVA    C1234038   2.653   0.072   3.718  0.5000 -0.1890 -0.0715
  201PVA    H2334039   2.569   0.034   3.659  2.1324 -0.8486 -2.0801
  201PVA    H2434040   2.679   7.669   3.778 -0.1195  0.4211  1.1417
  201PVA    C1334041   2.597   0.173   3.836  0.2109 -0.0885  0.3139
  201PVA    H2534042   2.668   0.255   3.854  2.9814 -2.1479 -0.4801
  201PVA    H2634043   2.619   0.120   3.930 -2.7137  0.0878  1.1963
  201PVA    C1434044   2.442   0.216   3.858  1.1661  0.1429  0.9705
  201PVA    H2734045   2.388   0.223   3.762  1.5196  3.1420  0.8930
  201PVA     O534046   2.438   0.351   3.902  0.1218  0.2882 -0.9132
  201PVA    H2834047   2.356   0.348   3.954  0.5276 -4.8437 -0.1152
  201PVA    C1534048   2.342   0.143   3.956  0.0786  0.4998  0.2269
  201PVA    H2934049   2.405   0.061   3.993  0.0934  0.7846  0.8531
  201PVA    H3034050   2.347   0.207   4.045  0.2102 -1.2608  1.5448
  201PVA    C1634051   2.185   0.103   3.919  0.0717 -0.9965 -0.0238
  201PVA    H3134052   2.208   0.045   3.829 -0.7543 -1.2125 -0.0961
  201PVA    H3234053   2.156   0.199   3.875  1.7474  0.8062  2.5024
  201PVA    C1734054   2.057   0.057   4.001 -0.1753 -0.1677  1.0838
  201PVA    H3334055   1.996   0.026   3.915 -1.5748  0.9120  1.6567
  201PVA     O634056   1.977   0.163   4.055 -0.0682 -0.1572  0.4205
  201PVA    H3434057   1.900   0.125   4.102 -0.6532  1.5273  0.9276
  201PVA    C1834058   2.047   7.626   4.100 -0.1084  0.1611  0.8152
  201PVA    H3534059   2.122   7.550   4.075  0.8971  2.7061 -6.1487
  201PVA    H3634060   2.055   7.669   4.200 -0.7681 -1.6038  1.6766
  201PVA    C1934061   1.919   7.540   4.116 -0.1330 -1.0901  1.0046
  201PVA    H3734062   1.944   7.466   4.039  3.7984 -0.1622  1.1769
  201PVA    H3834063   1.825   7.591   4.088  0.3435 -1.1423 -0.8591
  201PVA    C2034064   1.890   7.445   4.244 -0.6252  0.4131  0.2399
  201PVA    H3934065   1.981   7.446   4.305 -0.4602 -1.4299  0.0660
  201PVA     O734066   1.785   7.502   4.310  0.0223  0.1829 -0.5339
  201PVA    H4034067   1.718   7.507   4.239  1.3081  2.5601 -1.7036
  201PVA    C2134068   1.854   7.292   4.246 -0.3703 -1.1838  0.5019
  201PVA    H4134069   1.862   7.259   4.141 -2.8488  1.2619 -0.5769
  201PVA    H4234070   1.750   7.266   4.270  0.1640 -3.6130  0.5051
  201PVA    C2234071   1.927   7.202   4.347  0.6530 -0.3699  0.0626
  201PVA    H4334072   2.032   7.207   4.316  0.0056 -0.0793 -2.2380
  201PVA    H4434073   1.944   7.241   4.448  1.4624  3.4893 -1.4216
  201PVA    C2334074   1.879   7.046   4.371 -0.4016 -0.0496  0.4798
  201PVA    H4534075   1.772   7.030   4.357 -0.2421  1.2499 -3.4603
  201PVA     O834076   1.949   6.957   4.277  0.3560  0.0832  0.4125
  201PVA    H4634077   2.010   6.911   4.337 -1.2482 -4.1078 -0.8098
  201PVA    C2434078   1.917   6.987   4.513 -0.0834  1.3104  0.3635
  201PVA    H4734079   2.020   6.953   4.525  0.0561  1.1371 -1.2162
  201PVA    H4834080   1.905   7.077   4.576  1.1944  1.7213  0.0352
  201PVA    C2534081   1.832   6.870   4.572 -0.5314  0.7040  0.8331
  201PVA    H4934082   1.858   6.791   4.500 -0.0946 -0.9337  2.6988
  201PVA    H5034083   1.724   6.884   4.556 -0.9630 -3.9421 -2.1898
  201PVA    C2634084   1.859   6.830   4.723 -0.4976  0.5949 -0.5780
  201PVA    H5134085   1.916   6.906   4.778 -1.7467  1.3643 -0.2976
  201PVA     O934086   1.948   6.714   4.734 -0.4099  0.1929  0.2453
  201PVA    H5234087   1.895   6.644   4.693  1.3322 -1.5117  0.7503
  201PVA    C2734088   1.754   6.774   4.828  0.6404  0.0351 -0.9024
  201PVA    H5334089   1.657   6.817   4.802 -1.3960 -2.7176  1.4054
  201PVA    H5434090   1.721   6.672   4.802  1.4419 -1.1096  2.1174
  201PVA    C2834091   1.772   6.772   4.982 -0.2467  0.4025  0.5055
  201PVA    H5534092   1.669   6.740   5.004 -1.4328  1.4414 -2.8787
  201PVA    H5634093   1.782   6.876   5.015 -1.9685  0.5474  0.6952
  201PVA    C2934094   1.862   6.668   5.055 -0.1783  0.3457  0.4718
  201PVA    H5734095   1.875   6.578   4.994 -0.0604 -0.0834  1.1204
  201PVA    O1034096   1.985   6.739   5.070 -0.6285 -0.4974 -0.8672
  201PVA    H5834097   2.043   6.718   4.994 -2.1006  1.7114 -2.7418
  201PVA    C3034098   1.809   6.622   5.205 -0.2970 -0.6997 -0.2895
  201PVA    H5934099   1.734   6.544   5.188  0.8179 -2.4304  2.1600
  201PVA    H6034100   1.766   6.707   5.258 -0.3438  0.5342 -2.2163
  201PVA    C3134101   1.918   6.575   5.311  0.0912  0.1015  0.6826
  201PVA    H6134102   2.004   6.521   5.268  0.7722  2.0215 -0.4813
  201PVA    H6234103   1.977   6.665   5.336  0.9609 -0.0923 -0.5451
  201PVA    C3234104   1.852   6.493   5.429  0.0503 -0.0285 -0.5917
  201PVA    H6334105   1.786   6.413   5.393  2.5006 -1.9257 -1.0707
  201PVA    O1134106   1.781   6.600   5.512  1.4350  0.6118 -0.3062
  201PVA    H6434107   1.751   6.664   5.446  2.4525  2.4372  0.8893
  201PVA    C3334108   1.944   6.406   5.534  0.9543  1.2464  0.1907
  201PVA    H6534109   1.904   6.439   5.631  2.5572 -1.9205  2.0842
  201PVA    H6634110   2.046   6.437   5.508  1.2436 -1.2521 -2.0763
  201PVA    C3434111   1.914   6.249   5.528 -0.1818 -0.5122 -0.2493
  201PVA    H6734112   1.815   6.227   5.485  1.5617 -3.0436 -3.4737
  201PVA    H6834113   1.972   6.195   5.452  1.1230  0.2339  0.1851
  201PVA    C3534114   1.958   6.166   5.661  0.7109  0.0367  0.5971
  201PVA    H6934115   1.896   6.169   5.751 -0.2186  0.2753 -0.0340
  201PVA    O1234116   2.081   6.215   5.699  0.9582 -0.9925 -0.1781
  201PVA    H7034117   2.139   6.160   5.754  3.6602 -1.9808 -3.6452
  201PVA    C3634118   1.977   6.011   5.662  0.5642  0.5327  0.0355
  201PVA    H7134119   2.023   5.979   5.567 -0.3970 -3.7206  0.8051
  201PVA    H7234120   1.870   5.985   5.660  1.1319 -2.0597 -1.6462
  201PVA    C3734121   2.031   5.924   5.794 -0.9956 -0.4604 -0.0943
  201PVA    H7334122   1.976   5.934   5.889  0.1735  1.3374  0.4217
  201PVA    H7434123   2.118   5.981   5.826  0.1618 -1.4185 -1.4274
  201PVA    C3834124   2.081   5.774   5.782 -0.1927  0.5354 -0.5655
  201PVA    H7534125   2.157   5.777   5.702  0.8221 -2.9110  0.0928
  201PVA    O1334126   1.956   5.708   5.736 -1.5500  1.0758 -0.0119
  201PVA    H7634127   1.892   5.776   5.763 -2.5033 -1.1917  4.3572
  201PVA    C3934128   2.136   5.710   5.917 -0.5002 -0.8700 -0.0494
  201PVA    H7734129   2.058   5.637   5.940 -2.5488  1.5511  1.1422
  201PVA    H7834130   2.129   5.781   6.000 -1.2929 -1.4816  0.4177
  201PVA    C4034131   2.261   5.608   5.926 -0.4419  0.0238 -0.5051
  201PVA    H7934132   2.337   5.669   5.876  0.7161 -0.0555  1.0684
  201PVA    H8034133   2.222   5.518   5.876 -5.7081  1.1782  0.9317
  201PVA    C4134134   2.300   5.559   6.074 -0.2898  0.5661  0.2806
  201PVA    H8134135   2.337   5.645   6.131 -1.2633 -0.7496  3.0962
  201PVA    O1434136   2.177   5.507   6.119  0.1354  0.3922  1.1692
  201PVA    H8234137   2.111   5.569   6.083 -1.2658 -1.8428 -0.3561
  201PVA    C4234138   2.401   5.425   6.076 -0.7947 -0.2489  0.0805
  201PVA    H8334139   2.348   5.343   6.026 -0.4160 -0.2075 -0.3964
  201PVA    H8434140   2.489   5.466   6.025 -1.9208  0.8979 -1.0214
  201PVA    C4334141   2.442   5.389   6.232 -1.6467  0.2113 -0.9833
  201PVA    H8534142   2.366   5.352   6.302 -0.3576 -1.2929 -0.3154
  201PVA    H8634143   2.461   5.491   6.266  0.2231  1.0178 -4.1013
  201PVA    C4434144   2.571   5.296   6.273 -0.8666  0.0994 -0.4181
  201PVA    H8734145   2.666   5.340   6.240 -0.7675  0.4372  0.3186
  201PVA    O1534146   2.540   5.170   6.241 -0.3073  0.1138  0.2295
  201PVA    H8834147   2.463   5.141   6.294 -0.3737 -1.9572 -0.8983
  201PVA    C4534148   2.602   5.297   6.429  0.8638  0.1030 -0.8294
  201PVA    H8934149   2.601   5.400   6.467 -1.9797  0.5437 -1.8965
  201PVA    H9034150   2.512   5.255   6.476  1.5428  1.2439  1.6180
  201PVA    C4634151   2.744   5.234   6.477 -0.3502  0.5644  0.9093
  201PVA    H9134152   2.746   5.134   6.432  3.2734  0.0715  1.8088
  201PVA    H9234153   2.815   5.290   6.415 -0.4301 -2.0429 -1.7199
  201PVA    C4734154   2.782   5.239   6.629 -0.6825 -0.9459  0.7497
  201PVA    H9334155   2.756   5.344   6.651 -0.8834 -0.3132 -2.0465
  201PVA    O1634156   2.702   5.149   6.701 -0.3814  0.3611 -0.8637
  201PVA    H9434157   2.610   5.183   6.698 -0.8926 -0.9426 -0.3875
  201PVA    C4834158   2.929   5.219   6.668  0.2432 -0.9874 -0.2467
  201PVA    H9534159   2.974   5.296   6.605  2.0577 -1.7944 -0.0363
  201PVA    H9634160   2.969   5.120   6.641 -1.5487 -0.8382 -4.0006
  201PVA    C4934161   2.973   5.264   6.815  0.7784 -0.0480  0.2239
  201PVA    H9734162   3.078   5.231   6.809 -0.5467 -4.7939 -4.3001
  201PVA    H9834163   2.959   5.372   6.810  1.7624  0.0550 -1.0345
  201PVA    C5034164   2.935   5.195   6.952  0.1832  0.2241  0.1310
  201PVA    H9934165   2.831   5.222   6.971 -1.4675 -5.1026  0.1510
  201PVA    O1734166   2.945   5.054   6.930 -0.4375 -0.2386  0.4844
  201PVA   H10034167   2.891   5.040   6.850  0.5843  0.0312 -0.2632
  201PVA    C5134168   3.019   5.227   7.084  0.5416 -0.0717  0.6074
  201PVA   H10134169   3.069   5.325   7.086  3.9804 -1.6307  2.6070
  201PVA   H10234170   3.115   5.175   7.074  2.7673  3.3227  2.1012
  202PVA     C134171   1.855   6.185   1.860  0.0382 -0.4440 -0.9968
  202PVA     H134172   1.759   6.188   1.808 -1.7966 -0.3908  2.1260
  202PVA     H234173   1.933   6.181   1.782 -1.2642 -0.7816 -2.3204
  202PVA     C234174   1.832   6.054   1.942  0.1388 -0.6011  0.3260
  202PVA     H334175   1.733   6.054   1.989 -0.1036  1.1927 -0.1407
  202PVA     O134176   1.937   6.039   2.045  0.6038 -0.6812  0.1764
  202PVA     H434177   1.972   6.130   2.050  1.4612 -1.0547  1.7157
  202PVA     C334178   1.844   5.940   1.836  0.3037 -0.0887 -0.8326
  202PVA     H534179   1.941   5.940   1.784  1.4502  0.7742  1.1753
  202PVA     H634180   1.752   5.948   1.776 -1.2045 -1.9019  1.0615
  202PVA     C434181   1.806   5.813   1.914  0.6936  0.2449 -0.3210
  202PVA     H734182   1.849   5.808   2.015  1.9276 -1.4799 -0.8806
  202PVA     H834183   1.698   5.801   1.932  0.6429  1.5786  0.3791
  202PVA     C534184   1.861   5.702   1.822  0.3263 -1.1637  0.3530
  202PVA     H934185   1.836   5.724   1.718 -2.1824  0.8673  1.2862
  202PVA     O234186   1.997   5.711   1.831  0.5309  0.0375  0.5068
  202PVA    H1034187   2.036   5.696   1.919  1.2174  1.0060  0.3909
  202PVA     C634188   1.798   5.562   1.840  0.5041 -0.5134 -0.5479
  202PVA    H1134189   1.811   5.517   1.939  0.3647 -2.3972 -1.3437
  202PVA    H1234190   1.694   5.581   1.812  1.3698  0.3615 -3.5287
  202PVA     C734191   1.854   5.461   1.737  0.0740 -0.1213  0.3477
  202PVA    H1334192   1.958   5.447   1.769 -0.7925 -2.0545  2.5884
  202PVA    H1434193   1.857   5.491   1.631  1.9011  0.4346  0.5345
  202PVA     C834194   1.782   5.323   1.736  1.3583 -0.0093  0.0377
  202PVA    H1534195   1.753   5.296   1.839 -3.5090 -2.9214 -1.7577
  202PVA     O334196   1.867   5.227   1.669  0.3903 -0.5798 -0.2202
  202PVA    H1634197   1.831   5.150   1.622  1.0723 -0.6105 -0.7018
  202PVA     C934198   1.630   5.329   1.676 -0.7854  0.4949 -0.8137
  202PVA    H1734199   1.568   5.414   1.706 -4.9210 -2.1879 -0.9346
  202PVA    H1834200   1.582   5.239   1.714 -1.8436  0.2694 -2.5593
  202PVA    C1034201   1.623   5.344   1.517 -0.1344  0.3004  0.5426
  202PVA    H1934202   1.665   5.246   1.490  2.9981  1.8292 -0.5967
  202PVA    H2034203   1.686   5.420   1.471 -0.3822 -0.9871 -2.1708
  202PVA    C1134204   1.477   5.352   1.451 -0.4247 -0.6504 -0.3262
  202PVA    H2134205   1.420   5.283   1.515  5.3113 -2.7616  3.3060
  202PVA     O434206   1.434   5.478   1.482 -0.1880  0.0256 -0.0562
  202PVA    H2234207   1.430   5.519   1.394  1.1083  1.1154  0.3715
  202PVA    C1234208   1.472   5.340   1.293  0.4749 -1.3955 -0.9817
  202PVA    H2334209   1.505   5.238   1.267  0.2582 -0.6878 -4.5827
  202PVA    H2434210   1.367   5.344   1.261  0.1955  0.1468  0.0693
  202PVA    C1334211   1.553   5.457   1.220 -0.4161 -0.4302 -0.4701
  202PVA    H2534212   1.658   5.425   1.224 -0.0785  0.7086  2.3600
  202PVA    H2634213   1.566   5.551   1.276 -0.1648  1.0845 -2.9258
  202PVA    C1434214   1.529   5.504   1.076  0.2184  0.6822  0.0926
  202PVA    H2734215   1.521   5.406   1.028  0.0240  0.1861  1.0989
  202PVA     O534216   1.421   5.584   1.053 -0.7583  1.2215 -0.3335
  202PVA    H2834217   1.410   5.632   1.137  1.3907  0.6673  0.3090
  202PVA    C1534218   1.653   5.588   1.037 -0.6364  0.9811 -0.0518
  202PVA    H2934219   1.744   5.531   1.058 -0.8502  1.7815  3.7684
  202PVA    H3034220   1.659   5.683   1.092 -2.0635  3.6121 -3.9715
  202PVA    C1634221   1.680   5.619   0.888  0.3088  0.3764  0.3373
  202PVA    H3134222   1.661   5.528   0.829 -1.5086  3.6989 -5.0008
  202PVA    H3234223   1.603   5.691   0.855 -0.0231  0.7852  1.9206
  202PVA    C1734224   1.819   5.670   0.865  1.1289  0.0461 -0.4743
  202PVA    H3334225   1.876   5.576   0.876  0.9183  0.0985  1.4082
  202PVA     O634226   1.845   5.775   0.947  1.0597  0.4994  0.8525
  202PVA    H3434227   1.942   5.781   0.947  1.2948 -2.2045  0.3228
  202PVA    C1834228   1.844   5.722   0.727  0.4061 -0.9480  0.5592
  202PVA    H3534229   1.773   5.666   0.665 -0.3431  0.7404 -0.2003
  202PVA    H3634230   1.824   5.828   0.707  4.2146 -0.5597 -2.0410
  202PVA    C1934231   1.986   5.683   0.674 -0.1434 -0.1325  0.0183
  202PVA    H3734232   2.064   5.702   0.750  0.0810  0.0230 -0.2475
  202PVA    H3834233   1.990   5.574   0.664  0.7038  0.0660 -2.5895
  202PVA    C2034234   2.025   5.749   0.538 -0.0280 -0.7043  0.3304
  202PVA    H3934235   2.029   5.858   0.534  3.7829 -0.6541  1.5146
  202PVA     O734236   2.159   5.714   0.514  0.5283 -1.3744 -0.8089
  202PVA    H4034237   2.166   5.622   0.481 -1.1531 -1.1239 -1.9555
  202PVA    C2134238   1.948   5.688   0.421  0.4708  0.2709  0.0998
  202PVA    H4134239   1.839   5.679   0.430  0.6804 -2.5952  0.7619
  202PVA    H4234240   1.964   5.580   0.410 -0.5431  0.3727 -3.3312
  202PVA    C2234241   1.989   5.721   0.277  0.8885 -0.0210 -0.1389
  202PVA    H4334242   1.956   5.818   0.238 -4.9931 -0.2072  3.2317
  202PVA    H4434243   2.099   5.727   0.279  1.0020 -1.5290  2.3506
  202PVA    C2334244   1.947   5.618   0.173 -1.0748  0.5817 -0.5003
  202PVA    H4534245   2.005   5.668   0.094  1.5982 -0.9891  0.3684
  202PVA     O834246   2.014   5.494   0.189 -0.2624 -0.7177 -0.3773
  202PVA    H4634247   1.947   5.430   0.219 -1.5921  1.1553  0.8580
  202PVA    C2434248   1.800   5.599   0.149  0.1263 -0.2255 -0.7043
  202PVA    H4734249   1.742   5.674   0.205  0.8978 -0.9388  1.1308
  202PVA    H4834250   1.767   5.499   0.179 -1.7310  0.1786 -1.2444
  202PVA    C2534251   1.763   5.604   0.003 -0.5128 -0.1557 -1.7223
  202PVA    H4934252   1.819   5.694   8.071  2.3915 -1.0418  0.6495
  202PVA    H5034253   1.820   5.532   8.041  0.0140 -0.1662 -1.2072
  202PVA    C2634254   1.626   5.600   8.046 -0.1352 -1.0667 -0.8837
  202PVA    H5134255   1.576   5.504   8.062  1.3358 -1.7534 -0.2764
  202PVA     O934256   1.556   5.709   0.001  0.3901 -0.2233  0.3321
  202PVA    H5234257   1.607   5.787   0.031 -2.6608  2.4046 -0.7768
  202PVA    C2734258   1.628   5.610   7.904  1.0009 -0.6675  0.2431
  202PVA    H5334259   1.694   5.535   7.860  1.7984  1.0551 -1.6603
  202PVA    H5434260   1.687   5.699   7.879 -2.3568  1.4257 -0.8938
  202PVA    C2834261   1.487   5.615   7.831 -0.1561 -0.6483 -0.4167
  202PVA    H5534262   1.419   5.548   7.884 -1.2194  0.8717  0.2071
  202PVA    H5634263   1.435   5.709   7.852 -1.7875 -1.6284  0.0475
  202PVA    C2934264   1.481   5.628   7.672  0.0043  0.1125  1.4993
  202PVA    H5734265   1.468   5.731   7.637  4.6650 -0.2850 -2.5691
  202PVA    O1034266   1.608   5.596   7.606  0.5170 -0.0163 -0.6580
  202PVA    H5834267   1.671   5.648   7.659 -0.5808 -0.6819  1.4063
  202PVA    C3034268   1.382   5.534   7.576  0.1855 -0.2874  1.3539
  202PVA    H5934269   1.308   5.492   7.646  1.1386 -0.7276  2.1132
  202PVA    H6034270   1.319   5.613   7.533  3.2527  2.0406  0.7794
  202PVA    C3134271   1.444   5.432   7.477 -0.4585 -0.1095  0.6270
  202PVA    H6134272   1.491   5.501   7.406 -2.6799 -0.0475 -0.8582
  202PVA    H6234273   1.513   5.360   7.523 -0.4605  0.9509  2.4086
  202PVA    C3234274   1.339   5.334   7.408  0.5006  0.2795 -0.5447
  202PVA    H6334275   1.261   5.407   7.383 -1.2627  0.1944  3.8353
  202PVA    O1134276   1.292   5.230   7.494 -0.0096  0.6942 -0.2017
  202PVA    H6434277   1.288   5.145   7.447  3.0976  0.4030 -0.1327
  202PVA    C3334278   1.403   5.276   7.274 -0.6294  0.5519  0.3915
  202PVA    H6534279   1.453   5.186   7.313 -1.0316  1.2241  2.6384
  202PVA    H6634280   1.483   5.342   7.240 -0.3358  1.8479  3.3188
  202PVA    C3434281   1.314   5.238   7.158  0.3002 -0.1855  0.3019
  202PVA    H6734282   1.255   5.149   7.179 -5.1805  3.0091  0.3832
  202PVA    H6834283   1.236   5.313   7.140  0.0000 -0.7161 -0.7110
  202PVA    C3534284   1.400   5.219   7.031  0.0184  0.0641  0.9685
  202PVA    H6934285   1.499   5.265   7.043 -0.4348  1.3335  0.1043
  202PVA    O1234286   1.442   5.081   7.016 -0.3617 -1.2403 -0.4936
  202PVA    H7034287   1.496   5.057   7.093  0.4191  3.7061  0.9005
  202PVA    C3634288   1.339   5.275   6.898  0.2525 -0.3099  1.2462
  202PVA    H7134289   1.271   5.198   6.861 -0.0970  0.9878 -1.0132
  202PVA    H7234290   1.275   5.360   6.923 -2.7725 -2.5007  1.5432
  202PVA    C3734291   1.426   5.330   6.783 -0.0826  0.0338 -0.7775
  202PVA    H7334292   1.462   5.433   6.797  3.9752 -1.1511 -1.1558
  202PVA    H7434293   1.363   5.328   6.693  3.4612 -0.9987 -3.4610
  202PVA    C3834294   1.559   5.251   6.768 -0.4057  0.7127 -0.6031
  202PVA    H7534295   1.616   5.238   6.861 -2.7689 -1.0868  0.7246
  202PVA    O1334296   1.527   5.116   6.722 -0.0509  0.4741 -0.2881
  202PVA    H7634297   1.462   5.082   6.786 -1.2006 -0.1780 -1.7386
  202PVA    C3934298   1.647   5.315   6.657  0.6591  0.3940  0.8086
  202PVA    H7734299   1.675   5.420   6.670 -0.9133  0.6687  2.3170
  202PVA    H7834300   1.583   5.310   6.567 -0.5898  4.5970  1.2225
  202PVA    C4034301   1.789   5.250   6.643 -0.0857  0.4301 -0.0908
  202PVA    H7934302   1.833   5.228   6.741  1.8785 -0.8961 -1.2146
  202PVA    H8034303   1.760   5.156   6.594  3.0838 -0.2345 -0.8780
  202PVA    C4134304   1.890   5.312   6.554  0.2494 -0.3982  0.8004
  202PVA    H8134305   1.853   5.290   6.453 -2.4849  3.0462  0.8349
  202PVA    O1434306   1.885   5.454   6.541  0.4173 -1.2939 -0.1103
  202PVA    H8234307   1.949   5.494   6.602  0.1247 -1.6258  0.4208
  202PVA    C4234308   2.034   5.272   6.576 -0.3658  0.7451 -0.3509
  202PVA    H8334309   2.028   5.163   6.580  0.4995  0.7030  0.0387
  202PVA    H8434310   2.104   5.275   6.491  1.1176 -4.5132  0.2941
  202PVA    C4334311   2.108   5.357   6.688 -1.0338 -0.3842 -0.0095
  202PVA    H8534312   2.052   5.380   6.779  0.2762 -1.3305  1.0684
  202PVA    H8634313   2.117   5.464   6.664  2.8222  0.3618  3.5354
  202PVA    C4434314   2.248   5.314   6.730 -0.2003 -0.4408 -0.4980
  202PVA    H8734315   2.252   5.213   6.773  3.3998  0.1429  0.8431
  202PVA    O1534316   2.324   5.318   6.617  0.5230  0.0282  0.2931
  202PVA    H8834317   2.314   5.403   6.570  2.5611  0.4085  0.4744
  202PVA    C4534318   2.316   5.405   6.836 -0.2000 -0.0667 -0.0291
  202PVA    H8934319   2.258   5.433   6.924 -0.6364  0.4665 -0.4752
  202PVA    H9034320   2.327   5.505   6.792 -2.1383  1.4092  2.5605
  202PVA    C4634321   2.453   5.339   6.881 -0.5848  0.0153  0.4982
  202PVA    H9134322   2.446   5.234   6.912  1.7863  0.1672  1.7771
  202PVA    H9234323   2.525   5.351   6.799 -0.3311 -0.9259  0.5754
  202PVA    C4734324   2.521   5.418   6.995  0.2127  1.1655 -0.8696
  202PVA    H9334325   2.464   5.508   7.023 -3.8752 -1.0277 -1.3778
  202PVA    O1634326   2.651   5.429   6.963 -0.4988 -1.3689 -0.6677
  202PVA    H9434327   2.658   5.450   6.868 -1.1606 -1.1019 -0.6616
  202PVA    C4834328   2.517   5.338   7.123 -0.0394  0.5859 -1.0823
  202PVA    H9534329   2.410   5.317   7.128  0.0427 -1.2301 -4.1240
  202PVA    H9634330   2.565   5.239   7.122  0.1479  0.6468  0.4280
  202PVA    C4934331   2.551   5.428   7.249 -1.3373 -0.1424 -0.9779
  202PVA    H9734332   2.476   5.505   7.267 -1.0306 -0.4589  2.0328
  202PVA    H9834333   2.645   5.483   7.237 -1.4842  0.2624 -0.3089
  202PVA    C5034334   2.569   5.331   7.372  0.3201  0.0045 -0.4475
  202PVA    H9934335   2.571   5.227   7.339 -1.1347 -0.4260  0.7073
  202PVA    O1734336   2.470   5.338   7.471  1.1044  0.2157 -0.2210
  202PVA   H10034337   2.387   5.333   7.422  0.2227 -0.7528  1.3127
  202PVA    C5134338   2.708   5.364   7.453 -0.4816  0.1629  1.2697
  202PVA   H10134339   2.744   5.467   7.445  1.3017 -0.5676 -2.3017
  202PVA   H10234340   2.699   5.323   7.554 -0.7917 -3.0203  0.0957
  203PVA     C134341   1.682   6.484   2.245  0.0740 -0.0493  0.4772
  203PVA     H134342   1.736   6.530   2.329 -0.8432 -0.7658  1.4851
  203PVA     H234343   1.627   6.551   2.178 -0.7912  1.3114  2.4451
  203PVA     C234344   1.564   6.389   2.306 -0.1787 -0.0171 -0.3266
  203PVA     H334345   1.486   6.373   2.231 -1.7442 -0.8298  1.3987
  203PVA     O134346   1.626   6.258   2.325 -0.7792  0.5138  0.1747
  203PVA     H434347   1.550   6.203   2.352  1.5414 -2.9822  0.2796
  203PVA     C334348   1.491   6.443   2.429  0.2836  0.6677 -0.4158
  203PVA     H534349   1.557   6.416   2.513 -2.6821  1.1029  2.2646
  203PVA     H634350   1.494   6.553   2.434  1.4661  0.5935  1.7341
  203PVA     C434351   1.352   6.392   2.479 -0.6578 -0.6666 -0.4875
  203PVA     H734352   1.272   6.427   2.412 -2.7890 -0.3208  2.0592
  203PVA     H834353   1.348   6.283   2.465  1.9557 -0.8662 -0.0719
  203PVA     C534354   1.327   6.420   2.625  1.0306  0.5738 -0.1364
  203PVA     H934355   1.405   6.362   2.677  1.6940  0.4903 -1.1970
  203PVA     O234356   1.336   6.559   2.650  0.2023 -1.0578  0.0670
  203PVA    H1034357   1.430   6.584   2.656  0.3916 -0.8009 -2.6174
  203PVA     C634358   1.191   6.356   2.674 -0.3969 -0.1496 -0.0950
  203PVA    H1134359   1.120   6.360   2.591 -1.3613 -1.5468  0.6060
  203PVA    H1234360   1.178   6.251   2.703  0.1749 -1.5738 -4.3457
  203PVA     C734361   1.120   6.425   2.798  0.3659  0.2220 -0.0051
  203PVA    H1334362   1.192   6.420   2.880 -0.1039  1.3095  0.4968
  203PVA    H1434363   1.108   6.534   2.793  0.8528  0.3458  1.2896
  203PVA     C834364   0.984   6.344   2.834  0.1882 -0.2148  0.7343
  203PVA    H1534365   1.013   6.249   2.880 -1.2140 -1.4943 -0.8735
  203PVA     O334366   0.897   6.315   2.720 -0.7955  0.8140  0.7470
  203PVA    H1634367   0.919   6.227   2.685  2.2547  2.0900 -0.9665
  203PVA     C934368   0.914   6.419   2.945  1.6672  0.6335 -1.5124
  203PVA    H1734369   0.884   6.523   2.924  0.6699  0.4812 -0.9070
  203PVA    H1834370   0.995   6.422   3.019  1.6194 -1.0808 -1.3529
  203PVA    C1034371   0.797   6.330   2.987 -0.1336  0.4912  1.0480
  203PVA    H1934372   0.824   6.224   2.986 -1.6968  0.0567  1.6162
  203PVA    H2034373   0.732   6.355   2.902  1.6418 -2.7859 -1.5223
  203PVA    C1134374   0.726   6.379   3.120 -0.8754 -0.0815  0.6278
  203PVA    H2134375   0.790   6.376   3.209  0.2265 -1.4969 -0.1668
  203PVA     O434376   0.719   6.528   3.106  0.4167 -0.1613  0.0422
  203PVA    H2234377   0.667   6.563   3.180  1.3749  1.7492 -0.1083
  203PVA    C1234378   0.596   6.313   3.135 -1.0005  0.2126 -0.4417
  203PVA    H2334379   0.538   6.313   3.042 -1.6019 -3.4154 -0.2254
  203PVA    H2434380   0.532   6.375   3.200 -0.1712  1.1220 -0.4757
  203PVA    C1334381   0.608   6.174   3.188 -0.8560 -0.6520  0.9490
  203PVA    H2534382   0.690   6.164   3.260 -1.0582 -2.3361  0.9951
  203PVA    H2634383   0.647   6.120   3.100  0.8538 -2.0089  2.4611
  203PVA    C1434384   0.494   6.115   3.271 -0.0901  0.4458  0.3910
  203PVA    H2734385   0.399   6.100   3.218  0.4053 -1.1019 -0.1071
  203PVA     O534386   0.474   6.201   3.379 -0.1110 -0.2230  0.7479
  203PVA    H2834387   0.464   6.290   3.343 -2.6671  0.1899  2.2414
  203PVA    C1534388   0.506   5.968   3.309  0.0489  0.5628 -0.6736
  203PVA    H2934389   0.613   5.948   3.325 -0.1236 -0.1698 -0.3751
  203PVA    H3034390   0.481   5.911   3.218 -0.0209 -1.0881  0.3413
  203PVA    C1634391   0.424   5.898   3.419  0.0667  1.0671 -0.0336
  203PVA    H3134392   0.433   5.947   3.517 -4.2106 -2.9418  2.8749
  203PVA    H3234393   0.317   5.910   3.396  0.3196 -0.1710 -2.0816
  203PVA    C1734394   0.453   5.736   3.431 -1.1785  0.2767 -0.9280
  203PVA    H3334395   0.390   5.689   3.355 -1.3279 -3.5707  1.3142
  203PVA     O634396   0.588   5.711   3.393  0.5862 -0.4257  0.4453
  203PVA    H3434397   0.598   5.622   3.430  2.6445 -0.1866  0.5702
  203PVA    C1834398   0.429   5.670   3.568 -0.8476 -0.3394 -0.1931
  203PVA    H3534399   0.326   5.698   3.588 -0.5881  1.7764 -1.4757
  203PVA    H3634400   0.439   5.561   3.573 -0.4250 -0.2836  0.2965
  203PVA    C1934401   0.523   5.712   3.685  0.0559 -0.3058 -0.1191
  203PVA    H3734402   0.505   5.812   3.726  0.8025 -0.5976  0.9465
  203PVA    H3834403   0.617   5.728   3.630  1.9424 -1.7300  2.5076
  203PVA    C2034404   0.534   5.612   3.803  0.6768 -0.4360  1.0261
  203PVA    H3934405   0.579   5.519   3.766 -0.9367 -0.1167 -2.1151
  203PVA     O734406   0.414   5.576   3.846  1.0320 -0.5554  0.2006
  203PVA    H4034407   0.397   5.650   3.906  3.6342  0.3350 -0.0264
  203PVA    C2134408   0.624   5.659   3.914 -1.0390  0.2501 -0.0239
  203PVA    H4134409   0.730   5.660   3.885 -0.9408 -2.2788  0.0050
  203PVA    H4234410   0.605   5.761   3.949  6.3286  2.5536 -1.0448
  203PVA    C2234411   0.644   5.564   4.034  0.2432  0.8546  1.0494
  203PVA    H4334412   0.556   5.509   4.070  0.6938  0.1288  1.0682
  203PVA    H4434413   0.717   5.491   3.996  0.8736  2.7594 -1.7031
  203PVA    C2334414   0.721   5.610   4.163 -0.4644 -0.5944  0.6765
  203PVA    H4534415   0.771   5.525   4.212 -4.1842 -4.0850 -1.0344
  203PVA     O834416   0.812   5.716   4.138  0.6291  0.2901 -0.3583
  203PVA    H4634417   0.884   5.702   4.202 -0.4793 -3.0580  0.3861
  203PVA    C2434418   0.615   5.649   4.286 -0.4281  0.2404  0.2882
  203PVA    H4734419   0.593   5.564   4.352 -1.6986  2.2255  2.5950
  203PVA    H4834420   0.525   5.700   4.250  0.2435  3.3261  2.5288
  203PVA    C2534421   0.680   5.748   4.382  0.0753  0.0093 -0.3490
  203PVA    H4934422   0.653   5.846   4.339  2.2576 -0.4415 -2.9704
  203PVA    H5034423   0.789   5.752   4.383  0.1031 -0.7199  0.7831
  203PVA    C2634424   0.606   5.718   4.521 -0.0476  1.5841  0.9073
  203PVA    H5134425   0.499   5.698   4.507 -0.4422  5.0073 -2.9586
  203PVA     O934426   0.667   5.600   4.574  0.1504 -0.1371 -0.3201
  203PVA    H5234427   0.616   5.576   4.653  0.7615  0.0937  0.1515
  203PVA    C2734428   0.597   5.832   4.624  0.5516 -0.5776  0.9326
  203PVA    H5334429   0.679   5.817   4.696 -0.8791 -3.4008  2.1616
  203PVA    H5434430   0.521   5.804   4.698  1.6393  0.1557  2.3830
  203PVA    C2834431   0.578   5.988   4.582  0.5000  0.8556 -0.3133
  203PVA    H5534432   0.674   6.020   4.539 -0.4972  0.1207 -3.3456
  203PVA    H5634433   0.500   5.994   4.505 -0.3659 -0.9645  0.3693
  203PVA    C2934434   0.565   6.082   4.703 -0.0153  1.0551 -0.4212
  203PVA    H5734435   0.643   6.054   4.775 -0.6099  3.1121  1.1300
  203PVA    O1034436   0.425   6.072   4.764 -0.3296 -0.2068 -0.6093
  203PVA    H5834437   0.401   6.163   4.789  0.5636  0.5843 -2.4706
  203PVA    C3034438   0.595   6.230   4.677 -0.2848  0.6340  0.3001
  203PVA    H5934439   0.638   6.219   4.577 -1.1660 -0.7580  0.0474
  203PVA    H6034440   0.504   6.291   4.666 -0.5457  0.5892  1.9656
  203PVA    C3134441   0.705   6.287   4.778  1.4287  0.3666 -0.7767
  203PVA    H6134442   0.808   6.263   4.748  1.1855  0.3665 -1.6619
  203PVA    H6234443   0.671   6.241   4.871 -1.5441  3.2245 -0.2538
  203PVA    C3234444   0.698   6.441   4.792  0.3874 -0.4306  0.2755
  203PVA    H6334445   0.602   6.441   4.845 -0.1174  4.9532 -0.1045
  203PVA    O1134446   0.679   6.499   4.668 -0.2815 -0.0288  0.1697
  203PVA    H6434447   0.636   6.446   4.598  2.0891  1.9033 -3.0441
  203PVA    C3334448   0.825   6.507   4.853 -0.5015 -0.5216 -0.0324
  203PVA    H6534449   0.912   6.480   4.791 -1.5557 -3.0091 -0.5223
  203PVA    H6634450   0.847   6.457   4.948 -0.5620  1.2138  0.9418
  203PVA    C3434451   0.833   6.659   4.886 -0.3919  0.8125 -0.0197
  203PVA    H6734452   0.736   6.698   4.919 -1.0874 -0.5567 -0.3799
  203PVA    H6834453   0.872   6.664   4.988  0.4820 -1.6541 -0.1645
  203PVA    C3534454   0.908   6.765   4.801 -0.3513  0.6825  1.2122
  203PVA    H6934455   0.853   6.783   4.708  0.8334 -0.6717  0.1976
  203PVA    O1234456   1.038   6.708   4.758  0.1279  0.7936  0.4063
  203PVA    H7034457   1.103   6.780   4.762  0.5732  0.6244 -2.1257
  203PVA    C3634458   0.924   6.896   4.873  0.4455 -0.0472  0.8448
  203PVA    H7134459   0.865   6.900   4.966  3.4532  0.2084  2.8658
  203PVA    H7234460   1.023   6.904   4.918 -0.0305  1.3432  1.6962
  203PVA    C3734461   0.894   7.020   4.793  0.1104 -0.0406  0.4410
  203PVA    H7334462   0.785   7.014   4.782 -0.3417  2.2614  2.7340
  203PVA    H7434463   0.931   6.995   4.693  1.2130 -1.4621  1.1745
  203PVA    C3834464   0.938   7.156   4.854  0.3528 -0.5450 -0.5474
  203PVA    H7534465   0.881   7.156   4.948  0.0147  0.2494 -0.7472
  203PVA    O1334466   1.068   7.157   4.917 -0.6302 -0.6226 -0.5663
  203PVA    H7634467   1.113   7.071   4.926 -0.0551 -0.4946 -1.8474
  203PVA    C3934468   0.894   7.285   4.769 -0.0762 -0.6787  0.2232
  203PVA    H7734469   0.785   7.275   4.769  0.0859 -4.3052 -2.2436
  203PVA    H7834470   0.929   7.297   4.666 -0.3897  0.1667  0.2082
  203PVA    C4034471   0.932   7.419   4.834  0.3398  0.0459  0.0906
  203PVA    H7934472   0.900   7.423   4.939  1.8267  6.7523  0.7350
  203PVA    H8034473   1.042   7.422   4.834  0.3289  1.8052  1.1936
  203PVA    C4134474   0.877   7.544   4.759 -0.2059  0.3995 -0.3051
  203PVA    H8134475   0.924   7.548   4.660  1.7284  1.0753  0.6177
  203PVA    O1434476   0.742   7.533   4.733  1.1500 -0.4190  1.0625
  203PVA    H8234477   0.716   7.459   4.676  0.1819 -0.3925  1.4581
  203PVA    C4234478   0.910   7.683   4.830 -1.0992  0.3413  0.8781
  203PVA    H8334479   0.901   7.664   4.938 -1.4326 -1.9019  0.5088
  203PVA    H8434480   1.017   0.016   4.815 -0.7252 -0.9364  1.8286
  203PVA    C4334481   0.836   0.128   4.797  0.4016  0.0475 -0.8979
  203PVA    H8534482   0.836   0.147   4.689  1.2056 -1.1978 -1.1438
  203PVA    H8634483   0.899   0.203   4.846 -0.8801  1.9047 -1.9793
  203PVA    C4434484   0.701   0.144   4.876  0.5994 -0.0488  0.4771
  203PVA    H8734485   0.668   0.040   4.880 -3.4842  1.0893  0.8979
  203PVA    O1534486   0.707   0.192   5.005  0.0744 -0.3370 -0.8996
  203PVA    H8834487   0.712   0.289   5.007 -3.1094 -0.0499  1.4739
  203PVA    C4534488   0.604   0.218   4.790  0.5203  0.1742 -0.6603
  203PVA    H8934489   0.574   0.147   4.713 -0.0163 -2.2978  1.6731
  203PVA    H9034490   0.516   0.227   4.855  3.8110  0.0660  4.3943
  203PVA    C4634491   0.647   0.354   4.727 -1.0167  0.0344  0.3728
  203PVA    H9134492   0.672   0.409   4.818  3.4581 -0.2309 -0.4819
  203PVA    H9234493   0.738   0.334   4.669 -2.3769  0.1315 -1.9125
  203PVA    C4734494   0.527   0.411   4.649  0.0844 -0.8144 -0.5371
  203PVA    H9334495   0.456   0.456   4.719 -1.5271 -2.8564 -0.7813
  203PVA    O1634496   0.460   0.316   4.566 -0.1119 -0.0662  0.0514
  203PVA    H9434497   0.418   0.255   4.629 -1.6921  0.9292  0.0013
  203PVA    C4834498   0.573   0.544   4.567  0.2459 -0.2194  1.1743
  203PVA    H9534499   0.593   0.607   4.654  1.1521 -0.3989  1.1061
  203PVA    H9634500   0.661   0.532   4.503  0.8708 -3.4924  2.4390
  203PVA    C4934501   0.463   0.596   4.479  0.6364  0.0765  0.2936
  203PVA    H9734502   0.380   0.597   4.550 -0.2107  2.1002 -0.6367
  203PVA    H9834503   0.450   0.524   4.396 -0.3779  0.3812  0.1732
  203PVA    C5034504   0.471   0.749   4.431  0.6899 -0.1965  0.1127
  203PVA    H9934505   0.478   0.824   4.511  1.0488 -0.5865  0.4465
  203PVA    O1734506   0.357   0.761   4.352 -0.3884 -0.2062 -0.4809
  203PVA   H10034507   0.356   0.852   4.320  1.7258  0.9553  2.3155
  203PVA    C5134508   0.603   0.790   4.352  0.0808  0.5986 -0.3677
  203PVA   H10134509   0.683   0.722   4.385 -2.2004 -2.5548 -0.8674
  203PVA   H10234510   0.635   0.889   4.388  0.7441  1.0827 -2.1994
  204PVA     C134511   3.286   4.985   0.241  0.8021 -0.1322  0.8858
  204PVA     H134512   3.344   4.897   0.209 -0.6501 -0.2846 -1.6090
  204PVA     H234513   3.216   4.955   0.320  2.9807  0.0621  3.0079
  204PVA     C234514   3.411   5.077   0.308 -0.3819 -0.6219 -0.0359
  204PVA     H334515   3.506   5.041   0.267  0.8193 -1.5410  3.2639
  204PVA     O134516   3.392   5.211   0.262  0.2353  0.1584 -0.7975
  204PVA     H434517   3.360   5.211   0.170 -0.6651 -0.1274 -0.4977
  204PVA     C334518   3.451   5.067   0.476  0.0414 -0.1145  0.1933
  204PVA     H534519   3.479   4.962   0.470 -0.9363 -0.2887 -1.9359
  204PVA     H634520   3.360   5.085   0.535  1.2801 -0.9169  2.4801
  204PVA     C434521   3.576   5.146   0.549 -0.1603 -0.1626  0.0989
  204PVA     H734522   3.666   5.118   0.491 -1.4439  0.3317 -2.2596
  204PVA     H834523   3.560   5.249   0.515 -0.9237 -0.5653 -0.8008
  204PVA     C534524   3.619   5.143   0.710  0.3633  0.1248 -0.3877
  204PVA     H934525   3.538   5.183   0.773  2.2360  1.3202  1.4033
  204PVA     O234526   3.606   5.015   0.745 -0.8180 -0.9024  0.4116
  204PVA    H1034527   3.685   4.976   0.704 -0.7710 -1.7629  1.2622
  204PVA     C634528   3.762   5.213   0.765  0.9995 -0.1140  0.1018
  204PVA    H1134529   3.832   5.146   0.713  2.8445  1.0335  1.0000
  204PVA    H1234530   3.768   5.315   0.726 -1.2620 -0.0875 -0.3449
  204PVA     C734531   3.803   5.224   0.923  0.5992  0.7961  0.2163
  204PVA    H1334532   3.778   5.128   0.969  0.4685  0.6262 -0.2113
  204PVA    H1434533   3.736   5.299   0.967  0.3726  0.0184  1.2360
  204PVA     C834534   3.945   5.269   0.995 -0.0180  0.6922  0.1681
  204PVA    H1534535   4.018   5.197   0.956  2.1315  3.5960 -1.5608
  204PVA     O334536   3.957   5.386   0.924  0.2035  0.1767 -0.7566
  204PVA    H1634537   3.878   5.441   0.935  1.3795  1.8795 -0.3134
  204PVA     C934538   3.983   5.283   1.148 -0.4208  0.1872 -0.3904
  204PVA    H1734539   3.923   5.366   1.190 -1.2215 -1.5211  2.0619
  204PVA    H1834540   3.946   5.196   1.203 -0.7942  0.7599  0.2948
  204PVA    C1034541   4.145   5.316   1.197  0.4325  0.8386 -0.8400
  204PVA    H1934542   4.209   5.239   1.154  2.5815 -0.1635  3.5499
  204PVA    H2034543   4.189   5.401   1.142 -0.5870  3.2072  1.7570
  204PVA    C1134544   4.193   5.363   1.347 -0.6781  0.7635  0.7848
  204PVA    H2134545   4.160   5.465   1.322 -0.3564 -0.1164 -4.3866
  204PVA     O434546   4.109   5.331   1.455  0.2078 -0.0280 -0.6956
  204PVA    H2234547   4.079   5.241   1.436  2.1320 -1.0848  1.0047
  204PVA    C1234548   4.351   5.341   1.417 -0.3410  0.6397 -1.0664
  204PVA    H2334549   4.401   5.251   1.380 -0.3096  0.0284  0.3865
  204PVA    H2434550   4.405   5.421   1.363  0.6131  2.1420  1.8949
  204PVA    C1334551   4.399   5.359   1.571  1.0942  0.2820 -0.4382
  204PVA    H2534552   4.369   5.265   1.619 -1.6962  0.7369 -1.1597
  204PVA    H2634553   4.331   5.428   1.622  0.9509 -0.3137  0.1978
  204PVA    C1434554   4.559   5.391   1.624  0.5194 -1.2034  0.3984
  204PVA    H2734555   4.592   5.458   1.544  0.6213 -0.8566  0.7276
  204PVA     O534556   4.647   5.278   1.600  0.2479 -0.2280  1.7005
  204PVA    H2834557   4.624   5.200   1.653  2.9686 -2.5074 -0.1454
  204PVA    C1534558   4.601   5.449   1.779  0.2746  0.0464 -0.2460
  204PVA    H2934559   4.571   5.369   1.848  0.7029 -1.0651 -1.3092
  204PVA    H3034560   4.525   5.526   1.800  0.1286 -0.7562  2.6324
  204PVA    C1634561   4.751   5.491   1.840 -0.6731  0.0436 -0.7384
  204PVA    H3134562   4.773   5.582   1.783 -5.3106  1.8058 -0.1417
  204PVA    H3234563   4.815   5.404   1.820  0.0992  0.2757  0.5630
  204PVA    C1734564   4.804   5.536   1.993  0.5323 -0.6482 -0.7629
  204PVA    H3334565   4.733   5.613   2.028 -1.1126 -1.3264 -2.4397
  204PVA     O634566   4.764   5.429   2.071 -1.2134  0.1955  0.5460
  204PVA    H3434567   4.673   5.436   2.102 -1.0725  1.6321  0.7129
  204PVA    C1834568   4.959   5.584   2.020 -1.0606  0.0667  0.7035
  204PVA    H3534569   5.019   5.506   1.972 -4.9459 -1.7722 -1.6456
  204PVA    H3634570   4.987   5.676   1.967 -1.7811 -1.6177 -2.8478
  204PVA    C1934571   5.012   5.601   2.179 -0.5118 -0.7471  0.0905
  204PVA    H3734572   4.992   5.518   2.248 -1.0541 -3.0008 -2.5809
  204PVA    H3834573   4.944   5.683   2.203 -0.3182 -0.2538 -0.9934
  204PVA    C2034574   5.161   5.652   2.219  0.5467 -0.0341 -0.1273
  204PVA    H3934575   5.172   5.749   2.169  1.0851 -1.0494 -2.0763
  204PVA     O734576   5.252   5.562   2.145 -0.6420  0.0363 -0.1318
  204PVA    H4034577   5.203   5.484   2.113 -0.6845 -0.5273  1.2668
  204PVA    C2134578   5.236   5.668   2.367 -0.0456 -0.5518 -1.1403
  204PVA    H4134579   5.258   5.573   2.419 -1.0693  0.0919  0.5527
  204PVA    H4234580   5.155   5.724   2.414  0.3568  0.3053 -1.4578
  204PVA    C2234581   5.364   5.773   2.379 -0.2717  0.4835 -0.5108
  204PVA    H4334582   5.416   5.719   2.299  0.0302 -2.2466  1.4259
  204PVA    H4434583   5.328   5.874   2.354 -1.7175  0.6364  1.9079
  204PVA    C2334584   5.451   5.796   2.522  0.2714 -0.0990  0.1822
  204PVA    H4534585   5.385   5.870   2.568  1.8752 -0.6668  3.7439
  204PVA     O834586   5.422   5.681   2.604 -0.0513 -1.5095  1.4003
  204PVA    H4634587   5.362   5.638   2.542 -0.7825  1.8042 -0.4054
  204PVA    C2434588   5.608   5.837   2.524 -1.3978  0.1062  1.2542
  204PVA    H4734589   5.615   5.923   2.456 -1.8715 -0.6613  0.1990
  204PVA    H4834590   5.668   5.755   2.481 -1.6483  0.9078 -0.7747
  204PVA    C2534591   5.684   5.880   2.666 -1.4559  0.3337 -0.0284
  204PVA    H4934592   5.675   5.802   2.742  1.3366  1.6426  1.8021
  204PVA    H5034593   5.637   5.962   2.720  0.0265  1.1430  0.0959
  204PVA    C2634594   5.843   5.935   2.655  0.2102 -0.0803 -0.2054
  204PVA    H5134595   5.838   6.022   2.588 -0.1792 -2.3692 -3.4004
  204PVA     O934596   5.899   5.841   2.571 -0.4306  0.0696  0.5412
  204PVA    H5234597   5.946   5.886   2.499 -0.9695  2.4904  1.5824
  204PVA    C2734598   5.953   5.933   2.784  0.1252 -0.5350  0.8733
  204PVA    H5334599   6.000   5.834   2.773 -0.2053 -0.4349 -2.2258
  204PVA    H5434600   5.885   5.947   2.870 -2.0282  1.9519 -1.0646
  204PVA    C2834601   6.077   6.036   2.794 -0.3683 -0.1024 -0.1090
  204PVA    H5534602   6.118   6.028   2.692  2.4447  0.3576  0.8952
  204PVA    H5634603   6.029   6.133   2.810  0.9751  1.0049 -2.3094
  204PVA    C2934604   6.220   6.031   2.892 -1.1491  0.5591 -0.9707
  204PVA    H5734605   6.277   5.938   2.875  1.4488  1.6035  1.2424
  204PVA    O1034606   6.182   6.010   3.035 -0.1580  0.3296  0.6736
  204PVA    H5834607   6.225   5.938   3.083 -0.9729  0.5131  1.7050
  204PVA    C3034608   6.333   6.153   2.927  0.0786 -0.0149  1.3630
  204PVA    H5934609   6.397   6.132   2.841 -3.7229 -0.1643 -1.7467
  204PVA    H6034610   6.287   6.253   2.923 -0.3380 -0.2535 -0.2726
  204PVA    C3134611   6.427   6.169   3.069  0.1899 -0.0036 -0.2843
  204PVA    H6134612   6.503   6.089   3.069 -1.8529 -2.1624  2.3554
  204PVA    H6234613   6.381   6.144   3.166  0.5836 -2.5658 -0.6747
  204PVA    C3234614   6.535   6.290   3.090  0.2715  0.0282 -0.2664
  204PVA    H6334615   6.467   6.371   3.120 -1.1660 -1.5245  0.8222
  204PVA    O1134616   6.589   6.318   2.963  0.5456  0.0010  1.4560
  204PVA    H6434617   6.533   6.289   2.890  0.2874  1.3909  1.0700
  204PVA    C3334618   6.647   6.313   3.204 -1.1849  0.8789  0.5383
  204PVA    H6534619   6.737   6.256   3.180 -0.6767  2.2221 -0.8930
  204PVA    H6634620   6.612   6.256   3.292 -1.8489 -0.4168 -0.5366
  204PVA    C3434621   6.711   6.451   3.272  0.5918 -1.9495 -0.2404
  204PVA    H6734622   6.640   6.462   3.354  0.2670 -0.2133 -0.7171
  204PVA    H6834623   6.682   6.532   3.204  0.7759 -3.2753 -1.9758
  204PVA    C3534624   6.860   6.479   3.342 -2.1115  1.2904  0.5143
  204PVA    H6934625   6.933   6.489   3.260  0.7345 -1.7096  2.4275
  204PVA    O1234626   6.888   6.357   3.405  0.2659  1.1281  0.5679
  204PVA    H7034627   6.913   6.302   3.328 -2.0311  2.5281 -1.3272
  204PVA    C3634628   6.910   6.595   3.449  0.5214  0.2274  0.3905
  204PVA    H7134629   6.895   6.542   3.543 -3.1999  0.1300 -0.1120
  204PVA    H7234630   6.824   6.663   3.454  0.5559  0.5537 -2.0366
  204PVA    C3734631   7.054   6.662   3.453  0.2197 -0.5691 -0.1713
  204PVA    H7334632   7.070   6.711   3.356 -1.6069  2.2605  0.8091
  204PVA    H7434633   7.123   6.578   3.440  0.8105  0.2264 -2.8770
  204PVA    C3834634   7.111   6.776   3.561 -0.2046 -0.2998  1.1662
  204PVA    H7534635   7.098   6.720   3.654 -1.1441 -0.1766  1.1105
  204PVA    O1334636   7.017   6.875   3.588 -0.6776  0.1077 -0.1823
  204PVA    H7634637   7.025   6.875   3.685  0.2004 -2.0976 -0.1877
  204PVA    C3934638   7.268   6.846   3.571 -0.4666  0.5169  0.0339
  204PVA    H7734639   7.316   6.886   3.480 -4.9657  0.9670 -2.4130
  204PVA    H7834640   7.331   6.761   3.598  2.9549  2.4298 -1.2674
  204PVA    C4034641   7.296   6.972   3.689  0.1607  0.2034  0.8781
  204PVA    H7934642   7.221   7.046   3.659  1.0406  0.4867 -0.6837
  204PVA    H8034643   7.242   6.942   3.780 -2.2012 -1.4204 -0.9302
  204PVA    C4134644   7.446   7.023   3.731 -0.5799  0.3236  0.0883
  204PVA    H8134645   7.456   6.940   3.802 -0.2591 -2.5333 -3.0937
  204PVA    O1434646   7.550   6.998   3.627  0.2918  0.9739 -0.7147
  204PVA    H8234647   7.619   6.940   3.662 -2.9223 -1.8752  1.5693
  204PVA    C4234648   7.478   7.158   3.821 -0.2813 -0.6654  0.7677
  204PVA    H8334649   7.425   7.244   3.779 -0.7232 -1.1553  0.3191
  204PVA    H8434650   7.437   7.152   3.922 -2.3523 -1.8906 -0.0819
  204PVA    C4334651   7.631   7.242   3.825  0.6919 -0.9162 -1.0593
  204PVA    H8534652   7.676   7.243   3.725 -0.2414  3.0185 -1.6379
  204PVA    H8634653   7.705   7.177   3.873 -0.1168 -1.2522 -0.2372
  204PVA    C4434654   7.665   7.393   3.901  0.0826  0.0626  0.3099
  204PVA    H8734655   7.629   7.386   4.004  0.6601  0.5257  0.5431
  204PVA    O1534656   7.595   7.495   3.833 -0.2536 -0.4055  0.1021
  204PVA    H8834657   7.515   7.513   3.884 -1.1484  0.4460 -1.5172
  204PVA    C4534658   0.055   7.443   3.903  0.3263  0.1204 -0.3523
  204PVA    H8934659   0.098   7.448   3.802  1.5133  3.1121  0.2102
  204PVA    H9034660   0.117   7.365   3.949  1.4865  0.6776 -0.9228
  204PVA    C4634661   0.118   7.578   3.981  0.2933  0.3221  0.0807
  204PVA    H9134662   0.040   7.654   3.967 -0.7282 -0.9553 -1.5367
  204PVA    H9234663   0.113   7.545   4.086 -2.2882 -0.2696 -0.1611
  204PVA    C4734664   0.255   7.663   3.940  0.1457  0.2562  0.9004
  204PVA    H9334665   0.229   0.033   3.849  3.4959 -0.1917 -0.4846
  204PVA    O1634666   0.362   7.583   3.917  0.8318  0.3879 -0.8787
  204PVA    H9434667   0.427   7.632   3.863 -1.7803  4.1098 -1.0122
  204PVA    C4834668   0.316   0.118   4.013 -0.3433 -1.2479  0.2705
  204PVA    H9534669   0.336   0.104   4.120 -0.8488  0.1278  0.5599
  204PVA    H9634670   0.233   0.190   4.015  1.5287  1.2117 -2.0945
  204PVA    C4934671   0.443   0.213   3.948 -0.3298 -0.2041 -0.5467
  204PVA    H9734672   0.422   0.240   3.843 -3.1291  1.1314  0.2571
  204PVA    H9834673   0.526   0.143   3.928 -1.0841 -1.0953 -0.6044
  204PVA    C5034674   0.514   0.340   4.020 -0.7684  0.0236 -1.1807
  204PVA    H9934675   0.602   0.318   4.081 -0.4089  1.8762 -0.9671
  204PVA    O1734676   0.422   0.399   4.114  0.4028 -0.4856 -0.8559
  204PVA   H10034677   0.337   0.362   4.085 -0.8647  1.3320  0.3200
  204PVA    C5134678   0.591   0.461   3.949  0.4383 -0.2520 -0.4429
  204PVA   H10134679   0.695   0.436   3.924  0.4160  1.4617 -2.6386
  204PVA   H10234680   0.560   0.488   3.847 -0.2757 -0.4166 -0.2723
  205PVA     C134681   2.919   4.751   8.026 -0.6488 -0.0604 -0.4953
  205PVA     H134682   2.910   4.686   0.017 -0.2701 -0.5536 -0.8132
  205PVA     H234683   2.996   4.713   7.958  0.2187  0.1007  0.3829
  205PVA     C234684   2.782   4.736   7.936 -1.3263 -0.0982 -0.3124
  205PVA     H334685   2.820   4.743   7.833 -1.3970 -0.0744 -0.3367
  205PVA     O134686   2.696   4.861   7.948 -0.8577 -0.3415 -0.3950
  205PVA     H434687   2.754   4.934   7.921 -3.0841  2.4650  1.7397
  205PVA     C334688   2.705   4.591   7.960  0.0782 -0.1069  0.2952
  205PVA     H534689   2.784   4.516   7.961 -0.7852 -1.0467 -0.3141
  205PVA     H634690   2.648   4.594   8.054 -0.0518  0.1008  0.2103
  205PVA     C434691   2.601   4.545   7.852  0.0183 -0.0585 -0.2030
  205PVA     H734692   2.538   4.629   7.818 -2.8606 -1.5817  0.9635
  205PVA     H834693   2.646   4.534   7.753 -2.8251  2.4899 -1.9742
  205PVA     C534694   2.480   4.431   7.886 -0.0706 -0.7532  0.3942
  205PVA     H934695   2.390   4.493   7.896  0.5645  0.4439 -0.9943
  205PVA     O234696   2.507   4.375   8.011 -0.0050 -0.1105 -0.7592
  205PVA    H1034697   2.553   4.437   8.070  4.0745 -1.4560 -2.1737
  205PVA     C634698   2.424   4.317   7.786  0.8554 -0.4075  0.9680
  205PVA    H1134699   2.357   4.373   7.720 -3.8758 -4.6822  1.5390
  205PVA    H1234700   2.515   4.290   7.731  1.6806  2.2702  0.8587
  205PVA     C734701   2.337   4.181   7.831  0.2204  0.0421 -0.6778
  205PVA    H1334702   2.280   4.204   7.921  0.4600  1.6057 -0.8976
  205PVA    H1434703   2.401   4.099   7.866 -0.4553 -0.1369  0.1577
  205PVA     C834704   2.246   4.110   7.724  0.2062 -0.4186 -0.3172
  205PVA    H1534705   2.307   4.096   7.634  3.6714 -0.7408  1.8813
  205PVA     O334706   2.133   4.194   7.705  0.0852  0.7158 -0.4309
  205PVA    H1634707   2.102   4.227   7.791  0.6158 -0.8909  0.4143
  205PVA     C934708   2.176   3.965   7.757 -0.0765  0.3721 -0.2294
  205PVA    H1734709   2.101   3.982   7.836 -3.7545 -2.5053 -2.7559
  205PVA    H1834710   2.241   3.884   7.791 -1.3933 -1.4759 -1.8755
  205PVA    C1034711   2.087   3.890   7.643  0.3741  0.2878 -0.1130
  205PVA    H1934712   1.997   3.949   7.625  1.8248  1.7211 -3.3707
  205PVA    H2034713   2.143   3.892   7.549  1.2833 -1.5736  0.3236
  205PVA    C1134714   2.038   3.743   7.654 -0.5624  0.8329  0.1107
  205PVA    H2134715   2.129   3.684   7.672 -0.6601  0.5789 -0.2285
  205PVA     O434716   1.965   3.736   7.774  0.1843  0.2032  0.4132
  205PVA    H2234717   1.885   3.684   7.753  0.2212 -0.3344  1.5055
  205PVA    C1234718   1.945   3.670   7.533 -0.9603 -1.1031 -0.5207
  205PVA    H2334719   1.855   3.733   7.522 -1.1850 -1.1212  0.9328
  205PVA    H2434720   2.004   3.672   7.441  0.0568  0.6456  0.1014
  205PVA    C1334721   1.898   3.513   7.533  0.2634  0.4814  0.0613
  205PVA    H2534722   1.847   3.491   7.628  0.3987 -1.6801 -0.3036
  205PVA    H2634723   1.990   3.454   7.536 -0.8775 -1.5355 -1.5467
  205PVA    C1434724   1.816   3.462   7.399  1.5107 -1.2092  0.0962
  205PVA    H2734725   1.845   3.540   7.328  1.7832 -1.4949 -0.1063
  205PVA     O534726   1.680   3.491   7.416  0.0260  0.4411  0.0388
  205PVA    H2834727   1.643   3.498   7.326  0.9498 -0.0826 -0.3975
  205PVA    C1534728   1.833   3.316   7.320 -0.4351 -0.6058 -0.7461
  205PVA    H2934729   1.810   3.246   7.401  1.2470 -1.1506 -0.7038
  205PVA    H3034730   1.939   3.304   7.297 -0.6374  0.8647 -2.7065
  205PVA    C1634731   1.740   3.252   7.209 -1.0762 -0.3210 -0.1564
  205PVA    H3134732   1.739   3.315   7.119 -0.7606  1.3958  0.9886
  205PVA    H3234733   1.634   3.255   7.236 -2.5674 -2.4124 -4.6801
  205PVA    C1734734   1.786   3.101   7.162 -0.8700 -1.0339 -0.2866
  205PVA    H3334735   1.790   3.033   7.248 -0.6285  0.4576  0.9151
  205PVA     O634736   1.915   3.109   7.091  0.4723  0.2633  0.4954
  205PVA    H3434737   1.980   3.167   7.134  2.3695 -2.2207  1.2231
  205PVA    C1834738   1.696   3.017   7.055 -0.2555 -0.3991  0.1930
  205PVA    H3534739   1.597   3.064   7.061 -1.8111 -2.8988 -3.0307
  205PVA    H3634740   1.717   3.039   6.950 -1.9503 -3.6497 -0.9712
  205PVA    C1934741   1.677   2.856   7.058  0.5622 -0.0161 -0.2899
  205PVA    H3734742   1.648   2.812   7.155  1.7730 -0.9636 -0.3397
  205PVA    H3834743   1.774   2.816   7.026  2.1865  4.3269 -1.4241
  205PVA    C2034744   1.561   2.771   6.964 -0.2347  0.0165  0.3237
  205PVA    H3934745   1.631   2.725   6.893 -3.1802  0.7981 -3.4031
  205PVA     O734746   1.469   2.845   6.890 -0.4494 -0.5847 -1.4216
  205PVA    H4034747   1.439   2.913   6.952 -1.9676 -2.0721 -0.4518
  205PVA    C2134748   1.493   2.623   6.988  0.2916 -1.3395  0.3089
  205PVA    H4134749   1.474   2.616   7.095  2.0593  0.9543  0.8531
  205PVA    H4234750   1.569   2.552   6.953 -0.5660 -1.9417 -0.3682
  205PVA    C2234751   1.352   2.584   6.905  0.0635  0.7343 -0.3632
  205PVA    H4334752   1.271   2.658   6.905 -1.7726 -1.1661 -0.8662
  205PVA    H4434753   1.379   2.578   6.799 -1.8036 -1.6839 -0.7760
  205PVA    C2334754   1.297   2.431   6.916  0.5252 -0.6169 -0.2068
  205PVA    H4534755   1.328   2.369   6.831  5.4583 -1.6861  2.0212
  205PVA     O834756   1.373   2.361   7.012  1.1976 -0.7145  0.2344
  205PVA    H4634757   1.359   2.266   6.999 -5.3934 -0.3907  1.4763
  205PVA    C2434758   1.137   2.409   6.929  0.8013  1.2570 -1.2687
  205PVA    H4734759   1.112   2.482   7.006 -2.9421 -0.4242 -0.6562
  205PVA    H4834760   1.092   2.458   6.842 -1.6170  0.6516 -0.4250
  205PVA    C2534761   1.063   2.253   6.967 -0.8659 -0.7427 -0.1629
  205PVA    H4934762   1.136   2.172   6.954  0.8944  0.6422  0.4900
  205PVA    H5034763   1.033   2.257   7.072  2.0719 -0.5576  0.7801
  205PVA    C2634764   0.932   2.201   6.898  0.1489 -0.3587  0.1004
  205PVA    H5134765   0.866   2.246   6.973 -0.4148  0.2381 -0.7581
  205PVA     O934766   0.948   2.247   6.773 -0.2915  0.0132 -0.2659
  205PVA    H5234767   1.038   2.214   6.754 -1.0586 -1.8756 -0.8248
  205PVA    C2734768   0.870   2.057   6.901  0.5321  0.1110 -0.9365
  205PVA    H5334769   0.880   2.049   7.010 -3.5410 -1.9920 -0.5327
  205PVA    H5434770   0.935   1.985   6.850  0.4818  0.2270 -1.1666
  205PVA    C2834771   0.712   2.007   6.870 -0.3555 -0.4325 -0.9075
  205PVA    H5534772   0.691   1.952   6.962 -2.3706  3.4199  1.1627
  205PVA    H5634773   0.631   2.079   6.883 -0.7951 -0.4801 -2.9598
  205PVA    C2934774   0.659   1.906   6.764 -0.2109  0.4472  0.5809
  205PVA    H5734775   0.693   1.958   6.673 -0.9791  0.1094  0.0851
  205PVA    O1034776   0.715   1.780   6.789 -0.4462  0.2080 -0.1828
  205PVA    H5834777   0.679   1.752   6.874 -0.2925 -2.1637 -0.8135
  205PVA    C3034778   0.502   1.868   6.726  0.2828  0.6900 -0.0171
  205PVA    H5934779   0.459   1.820   6.815  3.6172 -0.1425  1.3009
  205PVA    H6034780   0.444   1.959   6.703 -3.1523 -2.0390 -3.4126
  205PVA    C3134781   0.470   1.757   6.606  0.2436 -0.3571  1.0771
  205PVA    H6134782   0.523   1.662   6.620 -3.0765 -3.1015 -2.5106
  205PVA    H6234783   0.503   1.787   6.505  1.4198 -0.6012  1.3749
  205PVA    C3234784   0.323   1.705   6.574  1.2988 -1.0668 -0.0597
  205PVA    H6334785   0.298   1.676   6.677  1.0702  1.6537  0.7216
  205PVA    O1134786   0.242   1.817   6.525  0.2977  0.4487  0.3044
  205PVA    H6434787   0.152   1.801   6.558  0.0285  1.0132 -0.1345
  205PVA    C3334788   0.301   1.578   6.460 -0.0447  0.0336 -0.7795
  205PVA    H6534789   0.333   1.620   6.364  1.5192  1.6622  0.3884
  205PVA    H6634790   0.369   1.493   6.475  2.4181  1.9174 -0.7086
  205PVA    C3434791   0.154   1.516   6.411  0.9785  0.6278 -0.0363
  205PVA    H6734792   0.104   1.602   6.366  1.6092  1.3686  0.6589
  205PVA    H6834793   0.104   1.492   6.505  0.2174  2.2351 -0.0052
  205PVA    C3534794   0.146   1.396   6.301 -0.5954  0.7255 -0.2317
  205PVA    H6934795   0.173   1.428   6.199  0.2883 -1.4920 -0.7648
  205PVA    O1234796   0.255   1.314   6.330 -0.0142 -0.7541 -0.4477
  205PVA    H7034797   0.327   1.335   6.268  1.6473 -1.5723  1.1118
  205PVA    C3634798   0.014   1.301   6.294  0.4242  0.5515  0.4826
  205PVA    H7134799   0.028   1.206   6.347 -3.5184 -1.4256 -1.5591
  205PVA    H7234800   7.701   1.360   6.343  0.3573  3.2257 -2.5202
  205PVA    C3734801   7.719   1.234   6.160  0.9291 -0.0312  0.1408
  205PVA    H7334802   0.037   1.217   6.091  2.3095 -0.6591  1.8984
  205PVA    H7434803   7.669   1.318   6.110  4.0226  2.5668  1.0995
  205PVA    C3834804   7.623   1.093   6.168 -0.3996 -0.8315  1.0339
  205PVA    H7534805   7.690   1.029   6.226 -0.7347 -3.6891 -1.4987
  205PVA    O1334806   7.522   1.128   6.261  0.3628 -0.6987  0.6406
  205PVA    H7634807   7.570   1.155   6.341 -2.6536  2.3155  1.6741
  205PVA    C3934808   7.530   1.016   6.046 -0.3927 -0.5382 -0.6781
  205PVA    H7734809   7.488   1.103   5.995  1.7454  1.5257  0.8715
  205PVA    H7834810   7.609   0.984   5.977 -1.0988 -2.1423 -0.8006
  205PVA    C4034811   7.452   0.879   6.076  0.8483  0.1388 -0.8100
  205PVA    H7934812   7.390   0.895   6.165 -1.4791  2.4383 -2.6885
  205PVA    H8034813   7.542   0.817   6.082  0.0322 -1.8798 -5.2108
  205PVA    C4134814   7.352   0.801   5.975 -0.2982  0.9819  0.6006
  205PVA    H8134815   7.381   0.855   5.884  1.8603  1.6026  1.5732
  205PVA    O1434816   7.223   0.824   6.022  0.1388 -0.9872 -0.6322
  205PVA    H8234817   7.199   0.916   6.002 -2.2252 -1.7787 -1.9649
  205PVA    C4234818   7.341   0.639   5.952 -0.9461 -0.6186 -0.0169
  205PVA    H8334819   7.437   0.588   5.933  0.8587  1.4833  2.6525
  205PVA    H8434820   7.326   0.595   6.051  1.0707 -3.1056 -0.6990
  205PVA    C4334821   7.229   0.573   5.849 -0.2252 -0.3966  0.8631
  205PVA    H8534822   7.252   0.625   5.755  0.1600 -1.0900  0.5683
  205PVA    H8634823   7.129   0.613   5.869 -0.9376 -0.1256 -2.5385
  205PVA    C4434824   7.213   0.412   5.803 -0.4120  0.5633 -0.4186
  205PVA    H8734825   7.189   0.361   5.898 -5.4018  1.8383 -0.7305
  205PVA    O1534826   7.335   0.374   5.759 -0.5756 -1.0143 -0.0108
  205PVA    H8834827   7.375   0.365   5.847 -3.7404  4.7168  2.5761
  205PVA    C4534828   7.083   0.360   5.708 -0.1378 -0.6447 -1.0855
  205PVA    H8934829   7.081   0.423   5.618 -0.6233  2.2115  0.8008
  205PVA    H9034830   6.996   0.393   5.767 -0.9914 -0.0236 -2.6434
  205PVA    C4634831   7.086   0.202   5.679 -0.0840 -0.6960  0.5756
  205PVA    H9134832   7.174   0.192   5.614 -0.8967 -1.1036 -0.4858
  205PVA    H9234833   7.114   0.157   5.775  0.7005 -0.3350  0.5264
  205PVA    C4734834   6.949   0.139   5.622 -0.1551  0.3359 -0.2648
  205PVA    H9334835   6.889   0.135   5.714  0.0151  4.6014  0.2336
  205PVA    O1634836   6.869   0.216   5.538  0.7827  0.0874 -0.6619
  205PVA    H9434837   6.826   0.277   5.600  2.7445  0.5967  0.2928
  205PVA    C4834838   6.934   7.683   5.532  0.5538  0.1953  0.0741
  205PVA    H9534839   7.005   7.606   5.567 -1.3160 -3.0725 -2.7259
  205PVA    H9634840   6.969   0.016   5.430 -2.2710 -0.7423 -1.1448
  205PVA    C4934841   6.798   7.590   5.513 -0.3478  1.0540 -1.3495
  205PVA    H9734842   6.719   7.660   5.485  0.4463  1.4320 -2.7644
  205PVA    H9834843   6.774   7.556   5.614  3.1387  4.1671  0.7940
  205PVA    C5034844   6.808   7.462   5.403  0.8581  0.0095 -0.3583
  205PVA    H9934845   6.795   7.491   5.298  3.1292  1.2379 -0.3558
  205PVA    O1734846   6.952   7.421   5.419  1.0278 -0.5795 -0.6191
  205PVA   H10034847   7.010   7.464   5.353  1.8430 -3.0116 -1.6344
  205PVA    C5134848   6.698   7.324   5.401 -0.0814 -0.7798  1.4289
  205PVA   H10134849   6.605   7.366   5.443  0.6182  0.7042  1.5777
  205PVA   H10234850   6.736   7.247   5.470  0.2769 -1.7335  0.1997
  206PVA     C134851   1.562   1.466   3.745 -0.6604 -0.6533  0.5744
  206PVA     H134852   1.501   1.555   3.766 -0.9511  0.5880 -4.2700
  206PVA     H234853   1.547   1.475   3.637  4.6644 -0.9697 -0.4593
  206PVA     C234854   1.709   1.535   3.782 -0.4148  0.3011  0.2257
  206PVA     H334855   1.737   1.502   3.882  4.4976 -2.4392 -1.6792
  206PVA     O134856   1.805   1.491   3.694  0.2287  0.5975  0.3238
  206PVA     H434857   1.852   1.415   3.733  2.1262  1.3492 -0.3957
  206PVA     C334858   1.732   1.702   3.777 -0.2799 -0.2696  0.2688
  206PVA     H534859   1.733   1.734   3.882 -0.5229 -0.8611  0.4578
  206PVA     H634860   1.635   1.745   3.749  0.9827  4.4165  2.1071
  206PVA     C434861   1.862   1.791   3.728 -0.5782  0.9422 -0.2250
  206PVA     H734862   1.845   1.817   3.623 -0.0641 -0.3510 -0.6421
  206PVA     H834863   1.946   1.721   3.732 -0.0180  1.6323  0.3140
  206PVA     C534864   1.924   1.936   3.785  0.4593 -1.4554 -0.9608
  206PVA     H934865   2.020   1.894   3.818  2.9263  3.9300 -0.2357
  206PVA     O234866   1.863   1.969   3.903 -0.1947  0.3676 -0.3123
  206PVA    H1034867   1.849   1.888   3.956  4.2127  1.9519  4.0964
  206PVA     C634868   2.000   2.078   3.721  0.8977 -0.1609 -1.0348
  206PVA    H1134869   2.089   2.043   3.668  1.6969 -2.0946  1.4401
  206PVA    H1234870   1.932   2.108   3.641 -0.5535  0.4688  0.3796
  206PVA     C734871   2.082   2.209   3.793  0.3990 -0.2440  0.3464
  206PVA    H1334872   2.182   2.174   3.820  1.0997 -1.2786 -3.1314
  206PVA    H1434873   2.036   2.225   3.892 -3.4167 -0.8566 -1.1322
  206PVA     C834874   2.132   2.359   3.739  0.2510  0.0559  0.5554
  206PVA    H1534875   2.179   2.342   3.641 -3.8218 -2.9006 -1.1786
  206PVA     O334876   2.013   2.426   3.749  0.3770  0.4340  0.5564
  206PVA    H1634877   1.984   2.445   3.659  1.5635 -1.5511 -0.3036
  206PVA     C934878   2.237   2.464   3.822 -0.8684  1.1855  0.4563
  206PVA    H1734879   2.165   2.493   3.899 -0.8783  0.1279  0.8727
  206PVA    H1834880   2.300   2.395   3.880 -1.0612 -2.7034 -3.4043
  206PVA    C1034881   2.341   2.581   3.763  0.4520 -0.1899 -0.8179
  206PVA    H1934882   2.430   2.533   3.720  2.9580  4.0214 -0.9753
  206PVA    H2034883   2.293   2.617   3.672 -1.8262 -1.1008 -0.0305
  206PVA    C1134884   2.397   2.729   3.836  0.6045 -0.7700 -0.2682
  206PVA    H2134885   2.429   2.698   3.937 -0.9792 -0.5404  0.3358
  206PVA     O434886   2.282   2.808   3.844  0.3233 -1.1646  1.0014
  206PVA    H2234887   2.216   2.754   3.892 -0.8138  1.3703  2.4670
  206PVA    C1234888   2.529   2.839   3.802 -0.4244 -0.2649 -0.6471
  206PVA    H2334889   2.480   2.930   3.764 -0.4473 -0.4386 -1.0338
  206PVA    H2434890   2.580   2.801   3.713  1.3215  0.5462 -0.0357
  206PVA    C1334891   2.640   2.896   3.918  0.3150  0.0068  0.3779
  206PVA    H2534892   2.594   2.920   4.015 -1.7255 -1.8895 -0.0304
  206PVA    H2634893   2.701   2.807   3.939 -1.3205 -0.7786  2.1129
  206PVA    C1434894   2.753   3.018   3.883  0.1110 -0.3391  0.1979
  206PVA    H2734895   2.785   2.993   3.781  2.1591 -0.2169  0.7650
  206PVA     O534896   2.691   3.144   3.895 -0.0077  0.0183  0.2712
  206PVA    H2834897   2.593   3.145   3.895 -0.0566  1.6360  2.5114
  206PVA    C1534898   2.910   3.033   3.947 -0.7151  0.6702 -0.8018
  206PVA    H2934899   2.961   2.940   3.918 -1.5860  0.7319 -2.6408
  206PVA    H3034900   2.910   3.040   4.057  0.2448  1.8417 -0.8572
  206PVA    C1634901   3.026   3.149   3.907  0.6924 -0.3359 -0.6619
  206PVA    H3134902   3.018   3.151   3.797  0.5293  2.1725 -0.6776
  206PVA    H3234903   2.976   3.245   3.925 -0.1942 -0.9485  0.2220
  206PVA    C1734904   3.184   3.163   3.942 -0.4439 -0.8142  0.0757
  206PVA    H3334905   3.192   3.134   4.047  4.7230  0.1589  0.2218
  206PVA     O634906   3.243   3.060   3.867 -0.0212  0.1091  0.5224
  206PVA    H3434907   3.238   3.081   3.772 -2.5787 -2.3975 -0.0628
  206PVA    C1834908   3.271   3.305   3.901 -0.0877 -0.8204  0.7137
  206PVA    H3534909   3.243   3.336   3.799 -0.0043 -0.1808  0.8812
  206PVA    H3634910   3.206   3.386   3.937  3.4424  2.9003 -0.5060
  206PVA    C1934911   3.441   3.351   3.908  0.4550  1.2926 -0.1901
  206PVA    H3734912   3.498   3.286   3.842  1.2983 -0.0505  1.7523
  206PVA    H3834913   3.491   3.307   3.995  1.5188 -0.0123 -1.4308
  206PVA    C2034914   3.495   3.514   3.923 -0.0079 -1.1597  0.6107
  206PVA    H3934915   3.457   3.557   4.017 -1.9254 -1.6605  0.1078
  206PVA     O734916   3.418   3.585   3.816  1.1224 -0.1987 -0.8128
  206PVA    H4034917   3.373   3.661   3.855  2.7610  0.3964  0.0341
  206PVA    C2134918   3.653   3.590   3.925 -0.3658  0.8974  0.1986
  206PVA    H4134919   3.727   3.509   3.915  0.4645  1.6728 -0.1008
  206PVA    H4234920   3.656   3.639   3.827  4.3240 -1.0599 -0.9473
  206PVA    C2234921   3.717   3.722   4.020  0.2062  0.0098  0.0125
  206PVA    H4334922   3.742   3.668   4.113 -0.4992 -0.5620 -0.1255
  206PVA    H4434923   3.628   3.780   4.047 -0.7910 -2.2695  2.0538
  206PVA    C2334924   3.829   3.848   3.994  0.6219 -1.7302 -0.8314
  206PVA    H4534925   3.760   3.933   3.980  2.2239 -0.9400 -6.6886
  206PVA     O834926   3.878   3.854   3.865 -0.7606  0.6458 -0.2811
  206PVA    H4634927   3.815   3.871   3.792 -0.9892 -1.5992 -0.6918
  206PVA    C2434928   3.930   3.914   4.106  0.2343  0.1507  0.1963
  206PVA    H4734929   3.865   3.933   4.193 -2.5562 -1.7980 -1.2995
  206PVA    H4834930   3.998   3.833   4.136 -0.4584 -0.8439 -0.8706
  206PVA    C2534931   4.040   4.040   4.084  0.6237 -0.4568  0.1936
  206PVA    H4934932   3.969   4.117   4.051  0.7844  0.7407  2.4569
  206PVA    H5034933   4.097   4.023   3.991 -0.0087 -0.8355 -0.1309
  206PVA    C2634934   4.160   4.098   4.200 -0.0157  0.4447  0.8457
  206PVA    H5134935   4.223   4.015   4.235  1.4555  0.8376 -0.7284
  206PVA     O934936   4.095   4.138   4.317  0.3554 -0.2797 -0.3561
  206PVA    H5234937   4.162   4.185   4.369  0.7924 -1.7415  0.4328
  206PVA    C2734938   4.277   4.221   4.169  0.5561  0.5145 -0.5693
  206PVA    H5334939   4.210   4.308   4.161  0.6224  0.6101 -0.1034
  206PVA    H5434940   4.331   4.185   4.081  0.7641 -2.3854  0.6588
  206PVA    C2834941   4.378   4.290   4.292  0.6921 -0.6753  0.4625
  206PVA    H5534942   4.319   4.337   4.371  2.2621 -0.7908  1.7320
  206PVA    H5634943   4.433   4.205   4.335 -1.1887 -2.5552 -0.6391
  206PVA    C2934944   4.499   4.400   4.271 -0.3916 -1.0104  1.1105
  206PVA    H5734945   4.451   4.484   4.220  4.5059  0.3000 -2.0399
  206PVA    O1034946   4.590   4.341   4.182  0.6273 -0.7234  0.9838
  206PVA    H5834947   4.551   4.280   4.117  1.9525 -0.7330  0.1613
  206PVA    C3034948   4.578   4.489   4.388  0.4714 -0.4053  0.0716
  206PVA    H5934949   4.490   4.536   4.434  0.4968 -1.8555  1.7095
  206PVA    H6034950   4.600   4.414   4.465 -0.2950  2.5681  3.4620
  206PVA    C3134951   4.702   4.608   4.376  0.3085  0.5192 -0.5259
  206PVA    H6134952   4.663   4.689   4.313  4.0164  4.0657  1.2733
  206PVA    H6234953   4.778   4.539   4.337 -0.5608 -0.9687  0.3195
  206PVA    C3234954   4.772   4.683   4.511 -0.4391 -0.3532  0.8214
  206PVA    H6334955   4.812   4.593   4.559 -1.5951 -2.0627 -1.2409
  206PVA    O1134956   4.671   4.748   4.585  1.2022 -0.2537  0.1748
  206PVA    H6434957   4.715   4.834   4.598  1.5954 -0.1676 -1.5260
  206PVA    C3334958   4.898   4.781   4.487 -1.7356  0.5598  0.6309
  206PVA    H6534959   4.956   4.732   4.408 -0.1141  0.9719  1.5032
  206PVA    H6634960   4.839   4.863   4.445 -2.5337 -1.9844 -3.9118
  206PVA    C3434961   4.995   4.853   4.604 -1.1096 -1.4343 -0.7004
  206PVA    H6734962   5.067   4.775   4.630  1.8670  1.4410  0.5304
  206PVA    H6834963   4.943   4.850   4.700 -2.0182 -3.5978 -1.2027
  206PVA    C3534964   5.080   4.995   4.587 -1.9493 -1.3633 -0.1902
  206PVA    H6934965   5.152   4.974   4.507  1.9398 -0.5354  2.7825
  206PVA    O1234966   4.990   5.087   4.547  0.3819 -0.2659 -0.2868
  206PVA    H7034967   4.920   5.085   4.614  1.3855  2.4922  0.9991
  206PVA    C3634968   5.174   5.070   4.705  0.2869 -0.1538  0.5873
  206PVA    H7134969   5.100   5.120   4.769  2.5071  2.1457  1.4983
  206PVA    H7234970   5.226   4.999   4.770  0.8946  0.1180  0.3988
  206PVA    C3734971   5.273   5.204   4.698  0.2481 -0.5157  0.0228
  206PVA    H7334972   5.200   5.278   4.661  0.5659 -1.7276 -3.3054
  206PVA    H7434973   5.340   5.197   4.612 -0.7386 -1.4634 -0.6945
  206PVA    C3834974   5.385   5.280   4.811 -0.4541 -0.6239 -0.0378
  206PVA    H7534975   5.476   5.220   4.825 -1.1708 -1.1713  3.1128
  206PVA    O1334976   5.326   5.287   4.942  0.5563  0.1936  0.1077
  206PVA    H7634977   5.233   5.264   4.926  1.2308 -1.7078 -1.4737
  206PVA    C3934978   5.466   5.423   4.796 -0.5908 -0.3258  0.7753
  206PVA    H7734979   5.427   5.491   4.720  2.2956  2.8701  1.8907
  206PVA    H7834980   5.571   5.400   4.770 -0.0480 -0.3077  2.7791
  206PVA    C4034981   5.521   5.542   4.908 -0.7256  0.0234 -0.0432
  206PVA    H7934982   5.540   5.505   5.010 -2.1427 -0.1186  0.1917
  206PVA    H8034983   5.431   5.596   4.938  0.5779  3.3226 -1.6495
  206PVA    C4134984   5.631   5.658   4.881  0.2012  0.3566  1.4362
  206PVA    H8134985   5.727   5.615   4.851 -1.4763 -2.4765 -0.2766
  206PVA    O1434986   5.581   5.730   4.756 -0.3292 -0.2617  0.3667
  206PVA    H8234987   5.645   5.802   4.768 -0.6769 -0.0584  1.0783
  206PVA    C4234988   5.671   5.807   4.959  0.0609  0.5213  0.6468
  206PVA    H8334989   5.597   5.878   4.919 -1.0846 -0.8457  0.2308
  206PVA    H8434990   5.660   5.797   5.067  0.0816 -1.2327  0.5081
  206PVA    C4334991   5.810   5.900   4.942  0.6724 -0.0738  0.3479
  206PVA    H8534992   5.850   5.933   4.845  1.3127  2.1055  1.2823
  206PVA    H8634993   5.891   5.833   4.974  1.0477 -0.4888 -1.3859
  206PVA    C4434994   5.830   6.036   5.029  0.1271  0.3481 -0.4591
  206PVA    H8734995   5.833   5.987   5.127  1.4495 -2.5854 -1.8459
  206PVA    O1534996   5.719   6.126   5.002  0.0532 -0.3531  0.4370
  206PVA    H8834997   5.739   6.204   5.056 -0.1179 -0.2888  0.4074
  206PVA    C4534998   5.967   6.146   5.005 -0.7967  0.3500  0.5709
  206PVA    H8934999   5.979   6.151   4.896  1.1160  0.4511  0.7487
  206PVA    H9035000   6.052   6.082   5.033 -0.6432  0.5176  0.4956
  206PVA    C4635001   6.008   6.294   5.066  0.0114  0.7186 -0.1021
  206PVA    H9135002   5.932   6.364   5.031 -0.7536  0.5548  1.1558
  206PVA    H9235003   6.002   6.299   5.176 -0.0518  5.4833 -0.1087
  206PVA    C4735004   6.143   6.388   5.035  0.2170 -0.2989  0.1125
  206PVA    H9335005   6.162   6.382   4.928 -0.8010 -1.8424 -0.0068
  206PVA    O1635006   6.242   6.309   5.085 -0.3227 -0.7056 -0.5796
  206PVA    H9435007   6.327   6.327   5.041  1.0707 -2.8216  1.0479
  206PVA    C4835008   6.177   6.544   5.105 -0.4707  0.8080  0.7437
  206PVA    H9535009   6.088   6.604   5.082 -0.2051  1.2122  0.7605
  206PVA    H9635010   6.169   6.538   5.214 -1.2149 -1.8589  0.6158
  206PVA    C4935011   6.302   6.650   5.066  0.6150 -0.4455 -0.2841
  206PVA    H9735012   6.276   6.709   4.978 -0.0178 -0.4660 -0.1182
  206PVA    H9835013   6.403   6.615   5.039  0.9921  2.3295 -2.9205
  206PVA    C5035014   6.337   6.790   5.159  0.8968  1.2960 -0.4774
  206PVA    H9935015   6.366   6.775   5.263 -1.9683  0.0968  0.2205
  206PVA    O1735016   6.212   6.854   5.189  1.2184  0.0430  0.0729
  206PVA   H10035017   6.141   6.806   5.143  1.1070  0.2928 -0.0181
  206PVA    C5135018   6.440   6.902   5.105  0.6381 -1.3078  0.4525
  206PVA   H10135019   6.427   6.907   4.996  0.3773 -0.1846  0.5252
  206PVA   H10235020   6.541   6.863   5.124  3.2447  4.6280  1.2456
  207PVA     C135021   1.521   0.937   3.801 -0.5376 -0.8181  0.0819
  207PVA     H135022   1.605   0.937   3.731 -1.1478  3.2368 -0.8848
  207PVA     H235023   1.573   0.945   3.897  3.3909 -1.0100 -1.8553
  207PVA     C235024   1.457   0.800   3.789  0.2518  0.0546 -0.8516
  207PVA     H335025   1.537   0.733   3.753 -2.4447 -4.1617  0.2221
  207PVA     O135026   1.398   0.772   3.920 -0.7502 -0.0975  0.1639
  207PVA     H435027   1.456   0.798   3.994 -1.2276 -0.2411  0.5924
  207PVA     C335028   1.357   0.764   3.673 -1.2017  0.3736 -0.3227
  207PVA     H535029   1.419   0.743   3.585  0.8025 -0.9652  1.3272
  207PVA     H635030   1.289   0.841   3.633 -0.5879 -0.1940 -2.6004
  207PVA     C435031   1.259   0.646   3.687 -0.7693 -1.1327 -0.6780
  207PVA     H735032   1.266   0.616   3.792  0.7863  2.3591  0.3384
  207PVA     H835033   1.158   0.682   3.662 -0.7662 -1.0804 -0.6135
  207PVA     C535034   1.259   0.509   3.608 -0.2154  1.2532 -0.2272
  207PVA     H935035   1.365   0.482   3.621  0.2933  1.4516 -3.1489
  207PVA     O235036   1.247   0.534   3.473  0.3901 -0.1248  0.0417
  207PVA    H1035037   1.231   0.628   3.455 -3.8462 -1.2572 -4.0423
  207PVA     C635038   1.166   0.389   3.646  1.1622 -0.1292 -0.4250
  207PVA    H1135039   1.214   0.310   3.587 -0.8103 -0.5924 -1.5022
  207PVA    H1235040   1.172   0.347   3.747 -3.1358 -2.0035 -0.7560
  207PVA     C735041   1.009   0.387   3.608 -0.3503 -1.1840 -0.5669
  207PVA    H1335042   1.006   0.441   3.512 -2.0684 -1.7758 -0.8743
  207PVA    H1435043   0.953   0.445   3.682  2.3633  1.2166 -0.2214
  207PVA     C835044   0.939   0.254   3.586 -0.3904  0.6265 -0.3491
  207PVA    H1535045   0.866   0.241   3.667 -2.2143 -1.3849 -2.2056
  207PVA     O335046   1.034   0.152   3.595  0.2860  0.1368  0.1464
  207PVA    H1635047   0.986   0.074   3.563  2.5568 -0.2866 -2.5299
  207PVA     C935048   0.848   0.233   3.464 -0.5201 -0.8095 -0.0968
  207PVA    H1735049   0.858   0.323   3.402  3.3582  1.2733  3.0509
  207PVA    H1835050   0.743   0.234   3.497  0.0224  2.6378  2.0698
  207PVA    C1035051   0.860   0.108   3.369 -0.1831  0.9034 -0.3291
  207PVA    H1935052   0.962   0.073   3.349  0.0030  0.9483  0.4721
  207PVA    H2035053   0.806   0.033   3.429  0.2717  2.4149  2.1473
  207PVA    C1135054   0.792   0.097   3.230 -0.6272  0.3904  0.3857
  207PVA    H2135055   0.703   0.033   3.226 -0.7253  0.5651 -2.8318
  207PVA     O435056   0.777   0.222   3.179  0.1394 -1.4136 -1.1249
  207PVA    H2235057   0.870   0.229   3.151  0.3972 -0.2322 -0.0420
  207PVA    C1235058   0.863   7.678   3.126 -0.4221 -1.0055  0.1242
  207PVA    H2335059   0.970   0.008   3.111 -0.9247  0.3373 -2.9417
  207PVA    H2435060   0.841   7.579   3.168 -3.9048 -0.2727  0.3297
  207PVA    C1335061   0.810   0.001   2.983  0.5797  0.2886  0.3720
  207PVA    H2535062   0.839   0.095   2.933  0.2264 -0.6442 -1.7053
  207PVA    H2635063   0.704   0.024   2.997  0.1604  0.0029 -1.9120
  207PVA    C1435064   0.788   7.571   2.889  0.5743  0.4916  0.0193
  207PVA    H2735065   0.885   7.566   2.839  1.6508  0.1064  2.0647
  207PVA     O535066   0.793   7.432   2.936 -0.0560 -0.2556  0.2662
  207PVA    H2835067   0.890   7.427   2.945 -0.3058 -2.7854  4.6569
  207PVA    C1535068   0.677   7.573   2.790 -0.2889 -0.1663  0.6853
  207PVA    H2935069   0.718   7.636   2.709 -0.3367 -0.8959  0.0834
  207PVA    H3035070   0.586   7.612   2.836  0.6526 -0.1916  2.6522
  207PVA    C1635071   0.636   7.448   2.710  0.0602 -0.1479 -0.2233
  207PVA    H3135072   0.716   7.402   2.649  0.8003  3.1575 -2.0099
  207PVA    H3235073   0.610   7.379   2.791 -1.8600 -0.2205 -0.8524
  207PVA    C1735074   0.498   7.439   2.622  0.1135  0.6970  0.2162
  207PVA    H3335075   0.517   7.397   2.522 -0.4234 -0.5475  0.6199
  207PVA     O635076   0.437   7.565   2.590 -0.1907 -0.6324  0.3583
  207PVA    H3435077   0.470   7.613   2.668 -2.6048  3.7701 -0.9899
  207PVA    C1835078   0.400   7.344   2.686 -0.3889 -0.2300 -0.4882
  207PVA    H3535079   0.454   7.253   2.716  1.9431  1.1057 -0.3508
  207PVA    H3635080   0.353   7.393   2.772 -0.7882  1.5098 -1.6389
  207PVA    C1935081   0.278   7.296   2.596  0.1516 -0.3312 -0.3261
  207PVA    H3735082   0.314   7.255   2.500  0.8369  1.7175 -0.9866
  207PVA    H3835083   0.223   7.381   2.555 -2.1298 -2.8485 -2.8925
  207PVA    C2035084   0.178   7.202   2.672  0.7450  0.6679  0.4812
  207PVA    H3935085   0.140   7.262   2.756  3.0237  3.2703 -0.2123
  207PVA     O735086   0.241   7.089   2.737 -0.3718  0.0022  0.2388
  207PVA    H4035087   0.324   7.126   2.772 -0.1680 -1.1608  1.0263
  207PVA    C2135088   0.068   7.139   2.587 -0.2386 -0.6577  0.1622
  207PVA    H4135089   0.096   7.072   2.505 -1.6963 -0.1128 -0.8117
  207PVA    H4235090   0.018   7.221   2.534  4.9723  2.3816 -0.7509
  207PVA    C2235091   7.731   7.045   2.666 -0.4583 -0.1766  0.9641
  207PVA    H4335092   0.001   6.947   2.702  0.5262  1.0671  3.6493
  207PVA    H4435093   7.686   7.099   2.749 -2.2763  5.1916 -2.9698
  207PVA    C2335094   7.612   7.018   2.579  0.3266  0.8461 -0.3654
  207PVA    H4535095   7.636   6.999   2.474 -4.6070 -1.4337 -1.3561
  207PVA     O835096   7.516   7.125   2.588  0.5142 -0.3883 -0.1183
  207PVA    H4635097   7.488   7.148   2.498 -0.1535 -0.8844 -0.0466
  207PVA    C2435098   7.542   6.888   2.622 -0.3971 -1.0684  0.0601
  207PVA    H4735099   7.619   6.812   2.636  1.7628  1.3870  3.1287
  207PVA    H4835100   7.496   6.903   2.721 -1.6299 -0.2745 -0.6134
  207PVA    C2535101   7.429   6.851   2.521  0.5637 -0.3510  0.2060
  207PVA    H4935102   7.464   6.843   2.417 -0.6675  4.3556 -0.8176
  207PVA    H5035103   7.385   6.949   2.500 -1.4571 -1.6703 -2.3418
  207PVA    C2635104   7.318   6.752   2.563 -0.0770 -1.1512  0.9745
  207PVA    H5135105   7.322   6.720   2.668 -0.6936 -4.8913 -0.0008
  207PVA     O935106   7.345   6.631   2.490 -0.1643  0.6573  0.2785
  207PVA    H5235107   7.343   6.641   2.393  1.5140  1.6626  0.3041
  207PVA    C2735108   7.176   6.807   2.530 -0.0041  0.2312 -1.4454
  207PVA    H5335109   7.162   6.887   2.604  0.5385 -0.7405 -0.2573
  207PVA    H5435110   7.178   6.859   2.433  0.5368 -0.2322 -1.6903
  207PVA    C2835111   7.065   6.700   2.536  1.7516  0.1586 -0.9777
  207PVA    H5535112   7.050   6.672   2.641  1.1044 -0.4272 -1.2204
  207PVA    H5635113   7.098   6.610   2.482  0.8290 -0.9855  0.2968
  207PVA    C2935114   6.919   6.740   2.506 -0.3506  0.7462 -0.1724
  207PVA    H5735115   6.854   6.765   2.591  0.4393 -1.7050  1.2645
  207PVA    O1035116   6.912   6.841   2.415 -0.7440  1.0760  0.5416
  207PVA    H5835117   6.835   6.890   2.450 -1.4553  1.9840 -2.0450
  207PVA    C3035118   6.835   6.614   2.472  1.6513  0.3386 -0.0815
  207PVA    H5935119   6.905   6.545   2.423  0.9645 -1.3431  1.1934
  207PVA    H6035120   6.827   6.565   2.570  3.2216 -0.7433 -0.4546
  207PVA    C3135121   6.699   6.646   2.400 -0.3128  0.8525 -1.0435
  207PVA    H6135122   6.713   6.686   2.299  0.3779  2.1411 -0.4535
  207PVA    H6235123   6.656   6.727   2.459  1.1464  1.6369 -1.0159
  207PVA    C3235124   6.585   6.532   2.376  0.0453  0.7111 -0.3356
  207PVA    H6335125   6.504   6.606   2.364  1.4187  2.0049 -2.3140
  207PVA    O1135126   6.581   6.462   2.498 -0.6973 -1.0484 -0.3048
  207PVA    H6435127   6.586   6.527   2.570  0.4974  1.0129 -2.1125
  207PVA    C3335128   6.582   6.423   2.253 -0.6181  0.2380  1.0513
  207PVA    H6535129   6.531   6.331   2.282  0.0392 -1.4633 -2.6236
  207PVA    H6635130   6.683   6.388   2.231 -1.3150  0.4924 -3.5674
  207PVA    C3435131   6.539   6.453   2.107  0.9703 -0.6654 -0.5596
  207PVA    H6735132   6.581   6.552   2.083 -1.9686  0.4462 -1.5278
  207PVA    H6835133   6.579   6.378   2.038  2.4650  0.0631 -0.5472
  207PVA    C3535134   6.381   6.482   2.108  0.3390 -0.3089  0.1582
  207PVA    H6935135   6.330   6.404   2.167 -1.5429 -2.7625 -4.2298
  207PVA    O1235136   6.357   6.606   2.169  0.1665  0.0995  0.0189
  207PVA    H7035137   6.358   6.596   2.266 -2.9715 -1.0222  0.0499
  207PVA    C3635138   6.291   6.447   1.981 -0.8576  0.7104  0.5247
  207PVA    H7135139   6.355   6.460   1.893 -1.0368 -0.8699  0.1248
  207PVA    H7235140   6.243   6.349   1.995  1.8351 -0.3138  4.5849
  207PVA    C3735141   6.164   6.549   1.950  0.2632 -0.4589  0.0911
  207PVA    H7335142   6.193   6.650   1.980 -1.7212  1.0752 -2.7093
  207PVA    H7435143   6.083   6.506   2.012  0.4716 -0.1981  0.5522
  207PVA    C3835144   6.094   6.572   1.814  0.0684  0.3388  0.8499
  207PVA    H7535145   5.991   6.598   1.840  0.5501  0.7448  2.4808
  207PVA    O1335146   6.077   6.435   1.751  0.1510 -0.2640  0.5562
  207PVA    H7635147   6.033   6.375   1.814 -0.0641 -0.4490  0.2364
  207PVA    C3935148   6.154   6.679   1.725 -0.3828 -0.0870  0.2240
  207PVA    H7735149   6.177   6.772   1.778 -0.5732  1.2846 -1.9696
  207PVA    H7835150   6.247   6.638   1.683  1.2047  6.5485 -4.1790
  207PVA    C4035151   6.087   6.726   1.595  0.1861 -0.0718  1.0956
  207PVA    H7935152   6.020   6.651   1.553 -2.9121  5.1588 -5.0158
  207PVA    H8035153   6.024   6.804   1.639  0.8680 -0.3477  2.6176
  207PVA    C4135154   6.177   6.791   1.486  0.4586 -0.1058  0.7944
  207PVA    H8135155   6.281   6.780   1.520  1.9101  0.2167 -3.1178
  207PVA    O1435156   6.134   6.930   1.480  0.3391  0.9254  0.1014
  207PVA    H8235157   6.187   6.973   1.411  0.0728  0.1495 -0.6108
  207PVA    C4235158   6.188   6.749   1.333 -0.7259  0.1336  0.3621
  207PVA    H8335159   6.288   6.782   1.303 -1.4322  1.9374 -0.1322
  207PVA    H8435160   6.178   6.640   1.329  1.0356 -0.0084 -1.8124
  207PVA    C4335161   6.099   6.808   1.216 -0.1360 -0.0755  0.2208
  207PVA    H8535162   6.087   6.917   1.228  1.0052  0.3143 -1.7179
  207PVA    H8635163   5.990   6.798   1.224  0.0319 -0.4041  3.2844
  207PVA    C4435164   6.129   6.774   1.065 -0.3840  0.3030 -0.3303
  207PVA    H8735165   6.195   6.851   1.023 -0.4914 -0.1586 -1.3700
  207PVA    O1535166   6.197   6.644   1.063 -0.7308  0.1776  0.6427
  207PVA    H8835167   6.126   6.581   1.042  0.5480 -1.5079  1.2367
  207PVA    C4535168   6.011   6.761   0.964 -0.1240 -0.0539  1.5617
  207PVA    H8935169   5.937   6.840   0.980 -0.8005 -0.0655 -1.1007
  207PVA    H9035170   5.967   6.673   1.012  2.3629 -0.2366  3.7467
  207PVA    C4635171   6.047   6.736   0.814 -0.0220 -0.0530  0.9024
  207PVA    H9135172   6.105   6.816   0.767  0.8847 -0.7876  0.7271
  207PVA    H9235173   6.115   6.651   0.793 -0.6516  0.4086 -4.3754
  207PVA    C4735174   5.924   6.728   0.715 -0.2054 -0.2309  0.6431
  207PVA    H9335175   5.880   6.828   0.711  0.9884  0.2708 -1.6935
  207PVA    O1635176   5.829   6.636   0.760  0.7140  0.4021 -0.4367
  207PVA    H9435177   5.832   6.554   0.708 -1.3405 -0.4584  0.6733
  207PVA    C4835178   5.962   6.693   0.563 -0.4239 -0.8924  0.2327
  207PVA    H9535179   5.903   6.602   0.546 -1.6868 -0.6661  2.7805
  207PVA    H9635180   6.066   6.662   0.577 -0.5151 -1.0582  0.5578
  207PVA    C4935181   5.941   6.811   0.454  0.7035 -1.0818 -1.0097
  207PVA    H9735182   5.837   6.843   0.442  0.6490 -0.8627  0.0003
  207PVA    H9835183   5.975   6.901   0.506 -4.6451  0.6502  0.0119
  207PVA    C5035184   6.012   6.798   0.309  0.8101 -0.8468 -0.2578
  207PVA    H9935185   6.110   6.747   0.313  0.4640 -1.4687  2.2205
  207PVA    O1735186   5.912   6.727   0.238  0.0430  0.0740  0.4062
  207PVA   H10035187   5.844   6.684   0.294 -2.8443  2.2585 -1.1444
  207PVA    C5135188   6.032   6.932   0.234 -0.0609 -0.3611 -0.8161
  207PVA   H10135189   5.936   6.982   0.247 -0.6853 -1.8509  0.6678
  207PVA   H10235190   6.120   6.976   0.283 -1.2677  1.0824  0.1191
  208PVA     C135191   6.961   7.589   4.444  1.3330  0.0036  0.2838
  208PVA     H135192   7.053   7.551   4.398  2.4973  2.3047  0.5231
  208PVA     H235193   6.935   0.004   4.405 -0.9522 -0.5891  0.1535
  208PVA     C235194   6.827   7.505   4.400  1.0336 -1.5104 -0.6702
  208PVA     H335195   6.825   7.478   4.294 -0.8248  1.0960 -1.3936
  208PVA     O135196   6.706   7.583   4.430 -0.2181 -0.2422  0.2670
  208PVA     H435197   6.711   7.624   4.518 -2.0138  0.5251  0.0475
  208PVA     C335198   6.815   7.368   4.477  0.3783  0.7797 -0.3334
  208PVA     H535199   6.889   7.353   4.557 -0.0681  2.0846  0.3466
  208PVA     H635200   6.852   7.284   4.416 -1.2956 -2.6699  2.9955
  208PVA     C435201   6.667   7.318   4.499  0.6038  0.2004 -0.5242
  208PVA     H735202   6.596   7.386   4.547 -2.9458 -2.0044 -2.2080
  208PVA     H835203   6.623   7.312   4.399  0.5225 -3.1251 -0.4090
  208PVA     C535204   6.656   7.178   4.573 -0.4217  0.0378  0.6674
  208PVA     H935205   6.691   7.116   4.490 -5.3321  0.7937 -2.4094
  208PVA     O235206   6.752   7.160   4.686 -0.2945 -0.2160 -0.6416
  208PVA    H1035207   6.840   7.131   4.657  0.6553 -0.0911  1.8880
  208PVA     C635208   6.512   7.139   4.603  0.5163  0.2543 -1.5966
  208PVA    H1135209   6.501   7.152   4.711  1.3035 -1.9641 -1.1869
  208PVA    H1235210   6.432   7.208   4.573 -0.6539  0.0305  0.8235
  208PVA     C735211   6.478   6.996   4.551  0.6059 -0.3909 -0.2897
  208PVA    H1335212   6.558   6.972   4.479 -0.7430 -2.6959 -1.1431
  208PVA    H1435213   6.384   7.010   4.497  2.4578  1.7022 -3.3347
  208PVA     C835214   6.473   6.877   4.654 -0.4043  0.8292  0.0226
  208PVA    H1535215   6.566   6.850   4.706  0.7464 -2.5104 -3.2749
  208PVA     O335216   6.377   6.920   4.746 -0.6280 -0.2404  0.2663
  208PVA    H1635217   6.414   7.004   4.780 -0.9468 -0.8297  2.2254
  208PVA     C935218   6.413   6.745   4.587 -0.0913 -1.1275 -0.7981
  208PVA    H1735219   6.308   6.767   4.565 -0.5908  1.3095  3.0679
  208PVA    H1835220   6.468   6.731   4.493  0.2454  0.4018 -0.8455
  208PVA    C1035221   6.420   6.611   4.671 -1.1241  0.7160 -0.6909
  208PVA    H1935222   6.525   6.579   4.673 -1.6069 -1.0880  3.3631
  208PVA    H2035223   6.394   6.629   4.776  3.1217  0.5179  0.5764
  208PVA    C1135224   6.333   6.500   4.627  0.1742  0.0048  0.3678
  208PVA    H2135225   6.228   6.529   4.638 -0.5799 -2.7919  1.6264
  208PVA     O435226   6.374   6.472   4.497  0.4638 -0.8943  0.4390
  208PVA    H2235227   6.297   6.479   4.438  1.1073 -1.8280 -0.5647
  208PVA    C1235228   6.350   6.369   4.710 -0.2189 -0.0334 -0.1659
  208PVA    H2335229   6.448   6.330   4.680  0.1119 -0.9671  1.9424
  208PVA    H2435230   6.362   6.381   4.818 -0.3382  1.1567 -0.2768
  208PVA    C1335231   6.250   6.253   4.666  0.2710  0.4487 -0.0366
  208PVA    H2535232   6.285   6.213   4.570 -2.5881 -1.9174 -0.2221
  208PVA    H2635233   6.144   6.280   4.672 -0.4055 -0.6613 -4.1820
  208PVA    C1435234   6.280   6.136   4.756 -0.2186 -0.0780  0.3329
  208PVA    H2735235   6.217   6.157   4.843 -1.8211 -2.7736 -0.0192
  208PVA     O535236   6.419   6.137   4.794 -1.0514 -0.1387  1.2918
  208PVA    H2835237   6.442   6.132   4.889 -1.6258 -0.5708  1.4153
  208PVA    C1535238   6.249   5.993   4.714  0.9498  1.2976 -0.5178
  208PVA    H2935239   6.323   5.955   4.642  0.6627  1.0922 -0.7106
  208PVA    H3035240   6.154   5.985   4.659  1.5830 -1.0368 -1.3912
  208PVA    C1635241   6.246   5.895   4.838  0.8028 -0.6671  0.9002
  208PVA    H3135242   6.337   5.907   4.897  0.5679 -2.2886  1.6525
  208PVA    H3235243   6.173   5.935   4.910 -0.7598  0.7084 -1.2867
  208PVA    C1735244   6.241   5.738   4.798 -0.0152  0.0706  0.4954
  208PVA    H3335245   6.307   5.717   4.714 -3.2243  1.9747 -2.7933
  208PVA     O635246   6.115   5.687   4.750  0.8324  0.0442  0.3412
  208PVA    H3435247   6.099   5.598   4.785  3.6138 -1.0446 -0.9291
  208PVA    C1835248   6.257   5.652   4.935  0.3622  0.1419  0.1554
  208PVA    H3535249   6.186   5.694   5.008 -1.8259  1.1510 -2.3811
  208PVA    H3635250   6.214   5.551   4.929  0.4492 -0.0242  1.7924
  208PVA    C1935251   6.406   5.633   4.982  0.5144  0.2069 -0.0975
  208PVA    H3735252   6.452   5.537   4.957 -4.7563 -3.2706  1.8023
  208PVA    H3835253   6.454   5.719   4.934  1.4198 -0.8312 -1.0883
  208PVA    C2035254   6.419   5.617   5.136 -0.0023 -0.1671 -0.6724
  208PVA    H3935255   6.391   5.709   5.187 -0.1803 -2.1520  3.1997
  208PVA     O735256   6.546   5.584   5.171 -0.4818 -0.0402  0.7715
  208PVA    H4035257   6.550   5.573   5.268 -0.7886 -0.6915  0.7178
  208PVA    C2135258   6.328   5.504   5.209  0.4884  0.0817  0.7945
  208PVA    H4135259   6.369   5.409   5.173 -4.0184 -1.9126  0.1919
  208PVA    H4235260   6.230   5.493   5.160  0.2889  1.7020  0.7886
  208PVA    C2235261   6.319   5.508   5.368  0.1784 -0.6787 -0.7872
  208PVA    H4335262   6.300   5.610   5.402  0.7969 -1.0587  0.7708
  208PVA    H4435263   6.242   5.438   5.405  1.0581 -0.0652  2.5185
  208PVA    C2335264   6.436   5.467   5.452 -0.1604  0.3427 -0.3810
  208PVA    H4535265   6.453   5.362   5.426 -1.7727  0.3724 -1.7753
  208PVA     O835266   6.548   5.557   5.442  0.4993  0.7839 -0.1658
  208PVA    H4635267   6.557   5.623   5.513  0.1981  3.2916 -2.2749
  208PVA    C2435268   6.397   5.445   5.602 -0.7066  0.1335 -0.0895
  208PVA    H4735269   6.311   5.377   5.607 -0.8721  0.3056 -0.6148
  208PVA    H4835270   6.486   5.389   5.635  2.2862  2.3597 -3.6262
  208PVA    C2535271   6.342   5.575   5.670 -1.1692 -0.4582 -0.6965
  208PVA    H4935272   6.238   5.589   5.638 -0.4098  7.8781 -1.8274
  208PVA    H5035273   6.395   5.668   5.646 -0.7877  0.3953  2.8392
  208PVA    C2635274   6.334   5.560   5.824  0.4555 -0.3971  0.8047
  208PVA    H5135275   6.431   5.536   5.870  0.4290  2.2335  2.4800
  208PVA     O935276   6.248   5.451   5.866 -0.7619 -0.0058 -0.4396
  208PVA    H5235277   6.258   5.425   5.959 -0.3061 -1.7965 -0.9466
  208PVA    C2735278   6.286   5.699   5.894  0.0025  0.9285  0.5552
  208PVA    H5335279   6.188   5.723   5.852  1.0208  2.6148 -1.0161
  208PVA    H5435280   6.348   5.779   5.852  1.0926  0.0272  0.4030
  208PVA    C2835281   6.248   5.704   6.040 -0.6149 -1.3264 -0.5492
  208PVA    H5535282   6.193   5.615   6.074  1.6329 -2.4719  0.3350
  208PVA    H5635283   6.344   5.708   6.094 -0.7660  2.0858 -0.3271
  208PVA    C2935284   6.168   5.841   6.079 -1.0284  0.0359  0.7480
  208PVA    H5735285   6.198   5.924   6.014 -1.0546 -1.3967 -1.1507
  208PVA    O1035286   6.026   5.821   6.078 -0.0635 -0.4106 -0.4075
  208PVA    H5835287   6.017   5.768   6.159 -0.6001 -2.2474 -1.5826
  208PVA    C3035288   6.195   5.897   6.227  0.0362  0.7072  1.3237
  208PVA    H5935289   6.145   5.830   6.299 -0.4041 -0.5926 -0.1406
  208PVA    H6035290   6.299   5.866   6.243  0.4183  1.2060 -0.1058
  208PVA    C3135291   6.157   6.042   6.245 -0.7035 -0.1909 -1.0878
  208PVA    H6135292   6.108   6.050   6.343 -1.5891 -0.4150 -1.5003
  208PVA    H6235293   6.074   6.076   6.182 -1.7373 -1.7578 -0.6106
  208PVA    C3235294   6.271   6.152   6.246 -0.4928 -0.3187 -0.7058
  208PVA    H6335295   6.339   6.120   6.326 -0.8235 -1.9415 -1.0557
  208PVA    O1135296   6.337   6.129   6.123 -0.1559  0.3239 -0.1496
  208PVA    H6435297   6.338   6.038   6.088 -0.8874  0.0028  0.6330
  208PVA    C3335298   6.212   6.294   6.257  0.2846 -0.5862 -0.1068
  208PVA    H6535299   6.162   6.303   6.355  0.1741  0.3222 -0.2366
  208PVA    H6635300   6.117   6.301   6.203 -0.5247 -2.4217  0.9745
  208PVA    C3435301   6.311   6.412   6.227  0.2985  0.1403  0.1680
  208PVA    H6735302   6.381   6.403   6.310 -0.5976 -2.3084  0.7529
  208PVA    H6835303   6.371   6.398   6.136  1.1144 -0.0089  0.7228
  208PVA    C3535304   6.246   6.553   6.231  0.4934 -0.2381  0.4096
  208PVA    H6935305   6.149   6.553   6.180  1.9512 -2.8333 -2.8164
  208PVA    O1235306   6.323   6.643   6.144  0.3672  0.3307  0.5886
  208PVA    H7035307   6.359   6.595   6.068 -1.3560 -1.8339  1.0229
  208PVA    C3635308   6.219   6.618   6.368 -0.6733 -0.2265  0.1282
  208PVA    H7135309   6.153   6.702   6.342 -2.0831 -1.7998 -1.6568
  208PVA    H7235310   6.164   6.540   6.423  5.5654 -4.0835  1.9206
  208PVA    C3735311   6.343   6.675   6.446 -0.2682 -0.2848 -0.1040
  208PVA    H7335312   6.409   6.736   6.383  0.7157 -0.8122  0.3765
  208PVA    H7435313   6.399   6.586   6.481 -0.4110 -0.5525 -0.5513
  208PVA    C3835314   6.281   6.756   6.571 -0.7813 -0.3232  0.6330
  208PVA    H7535315   6.219   6.835   6.527  0.1009  1.8714  3.0771
  208PVA    O1335316   6.400   6.814   6.621  0.3886 -0.5447 -0.3439
  208PVA    H7635317   6.470   6.818   6.553 -0.2577  0.5471 -0.9806
  208PVA    C3935318   6.227   6.666   6.681  0.0276  0.2191  0.3960
  208PVA    H7735319   6.314   6.635   6.741  0.5639 -3.3289 -1.8725
  208PVA    H7835320   6.178   6.582   6.629  1.7858 -1.2182  0.9350
  208PVA    C4035321   6.119   6.725   6.774 -0.4839  1.5574  0.7039
  208PVA    H7935322   6.189   6.782   6.837  5.5253 -1.1617 -2.7202
  208PVA    H8035323   6.035   6.784   6.734 -0.3623  0.0432 -1.9957
  208PVA    C4135324   6.051   6.624   6.870  0.2952  0.1030 -0.7380
  208PVA    H8135325   5.984   6.700   6.912  1.5715  1.1350 -0.5250
  208PVA    O1435326   5.987   6.520   6.802  0.6150  0.7121 -0.3175
  208PVA    H8235327   5.984   6.538   6.707  0.4210 -1.8045 -0.8607
  208PVA    C4235328   6.142   6.559   6.978  0.9180  0.3209  0.0145
  208PVA    H8335329   6.195   6.476   6.929 -0.4374  0.9333 -2.6773
  208PVA    H8435330   6.217   6.627   7.020 -0.1581  0.1104  2.4210
  208PVA    C4335331   6.077   6.512   7.105 -1.0293  0.1586 -1.0516
  208PVA    H8535332   6.039   6.596   7.164  0.2582  1.0172 -1.4075
  208PVA    H8635333   5.983   6.462   7.076 -0.5442 -0.3775 -1.7224
  208PVA    C4435334   6.148   6.419   7.202  0.2698  1.0718 -1.0984
  208PVA    H8735335   6.231   6.474   7.249 -1.4418  1.5224  1.6468
  208PVA    O1535336   6.187   6.307   7.134 -0.2101  0.5643  0.5243
  208PVA    H8835337   6.219   6.232   7.188  1.9100  1.7992  1.0912
  208PVA    C4535338   6.053   6.379   7.320  0.4554 -0.4307  0.7498
  208PVA    H8935339   5.984   6.463   7.337 -0.8622 -1.9075  3.3048
  208PVA    H9035340   5.989   6.292   7.299 -1.8854  1.2928  0.2515
  208PVA    C4635341   6.127   6.365   7.459 -0.3569  0.7507 -0.4647
  208PVA    H9135342   6.206   6.289   7.451 -0.9245  0.1539 -0.5152
  208PVA    H9235343   6.169   6.464   7.479  0.4543  1.0098 -3.0707
  208PVA    C4735344   6.030   6.321   7.575 -0.4304 -0.1601 -0.2194
  208PVA    H9335345   5.935   6.373   7.557 -0.7316 -1.2044 -1.7897
  208PVA    O1635346   5.999   6.181   7.564  0.2912  0.1494 -0.1225
  208PVA    H9435347   5.955   6.157   7.647 -2.5813 -2.0137 -2.0478
  208PVA    C4835348   6.107   6.356   7.712 -0.1756 -0.4880  0.2987
  208PVA    H9535349   6.095   6.265   7.772 -0.3074  0.4641  1.7510
  208PVA    H9635350   6.212   6.374   7.686 -0.2672 -1.1954 -0.6378
  208PVA    C4935351   6.046   6.481   7.772  0.2782 -0.2858  0.5169
  208PVA    H9735352   5.947   6.458   7.813 -2.0549  3.7030 -2.1868
  208PVA    H9835353   6.030   6.551   7.689  0.7615  0.2711  0.8803
  208PVA    C5035354   6.137   6.556   7.884 -0.3070  1.2969  0.2840
  208PVA    H9935355   6.234   6.581   7.838 -0.6052 -3.4010 -3.8118
  208PVA    O1735356   6.190   6.477   7.997 -0.9496 -0.4752 -0.1832
  208PVA   H10035357   6.137   6.398   7.976 -2.0356  0.6805 -2.0925
  208PVA    C5135358   6.066   6.678   7.938  0.9186  0.6365 -0.6784
  208PVA   H10135359   6.008   6.656   8.028 -0.1255  2.5633 -0.8161
  208PVA   H10235360   5.991   6.706   7.863  3.9640  3.0959 -3.0589
  209PVA     C135361   7.016   0.306   4.749 -0.5409  0.6383 -0.5626
  209PVA     H135362   7.088   0.274   4.826 -0.8462  1.9400  0.2965
  209PVA     H235363   6.940   0.365   4.802 -3.3207 -0.4287 -3.0662
  209PVA     C235364   7.085   0.402   4.650  0.2217 -0.7973  0.7369
  209PVA     H335365   7.000   0.449   4.598 -0.6348 -0.8796  2.0112
  209PVA     O135366   7.173   0.328   4.568 -0.4883 -0.3530 -0.4863
  209PVA     H435367   7.200   0.383   4.494 -1.8525  0.6479 -0.2860
  209PVA     C335368   7.161   0.518   4.718  0.3611 -0.4466 -0.1473
  209PVA     H535369   7.229   0.479   4.795  0.2910 -1.3382 -0.5314
  209PVA     H635370   7.075   0.576   4.753 -0.4456 -0.2447 -2.3142
  209PVA     C435371   7.239   0.608   4.620 -0.0083 -0.3840 -0.6498
  209PVA     H735372   7.206   0.609   4.515 -0.2516 -0.8824 -0.5842
  209PVA     H835373   7.347   0.586   4.613  0.8580  3.0647  0.1245
  209PVA     C535374   7.266   0.765   4.671  0.6512  0.4310 -0.3527
  209PVA     H935375   7.164   0.802   4.686 -0.1985 -2.5482  2.3594
  209PVA     O235376   7.332   0.747   4.792 -0.6575  0.9476 -0.3369
  209PVA    H1035377   7.274   0.705   4.857  0.8059 -0.0680  0.3598
  209PVA     C635378   7.349   0.850   4.569  0.1411 -0.5891  0.4254
  209PVA    H1135379   7.457   0.862   4.586  0.1090  1.0075 -0.3104
  209PVA    H1235380   7.334   0.807   4.469 -1.8915  3.6552 -1.3536
  209PVA     C735381   7.296   0.994   4.534  0.5856  0.6667 -0.0234
  209PVA    H1335382   7.294   1.049   4.628 -0.1752 -0.2273  0.5054
  209PVA    H1435383   7.191   0.983   4.503  0.0290  1.5803  1.4731
  209PVA     C835384   7.387   1.071   4.429  0.1033 -0.1630 -0.0723
  209PVA    H1535385   7.489   1.076   4.471  1.3598  0.4267 -2.9471
  209PVA     O335386   7.385   1.014   4.305 -0.1635  0.9721  0.4275
  209PVA    H1635387   7.439   0.936   4.326  0.0429  1.3415  1.3166
  209PVA     C935388   7.344   1.226   4.421 -0.8984  0.5665 -0.0559
  209PVA    H1735389   7.367   1.250   4.525 -0.1615 -1.5717  0.3384
  209PVA    H1835390   7.235   1.225   4.411 -0.9478 -1.3174  0.2299
  209PVA    C1035391   7.413   1.306   4.311  0.5944 -0.3138  0.7567
  209PVA    H1935392   7.515   1.267   4.296 -0.2769 -3.3934  2.0124
  209PVA    H2035393   7.347   1.297   4.225 -2.9694  3.6344  2.7202
  209PVA    C1135394   7.434   1.464   4.319  0.3974  0.1208 -0.9013
  209PVA    H2135395   7.336   1.512   4.311  1.3970  2.2321 -0.9793
  209PVA     O435396   7.488   1.487   4.440 -0.8254 -0.3074 -0.1568
  209PVA    H2235397   7.424   1.441   4.496  0.2979 -1.4374  0.2601
  209PVA    C1235398   7.526   1.534   4.203 -0.7844 -0.2020 -0.0239
  209PVA    H2335399   7.606   1.468   4.168  0.5911  1.3162  0.1063
  209PVA    H2435400   7.456   1.530   4.119 -3.1473 -0.6158  1.8399
  209PVA    C1335401   7.574   1.686   4.215 -0.1998  0.7028 -0.0808
  209PVA    H2535402   7.649   1.694   4.295  0.2804  1.2947 -0.5774
  209PVA    H2635403   7.490   1.752   4.241 -0.5185 -0.5794  2.3890
  209PVA    C1435404   7.648   1.749   4.095  0.3222  0.3122 -0.6062
  209PVA    H2735405   7.738   1.687   4.107  0.1411  0.1272 -0.1906
  209PVA     O535406   7.593   1.728   3.979  0.3946 -0.2602  0.5155
  209PVA    H2835407   7.658   1.728   3.907  1.4265  0.3457  1.4042
  209PVA    C1535408   7.684   1.909   4.108 -0.3815 -0.7893 -0.6516
  209PVA    H2935409   7.740   1.932   4.200 -0.6093  1.6577 -1.0621
  209PVA    H3035410   7.592   1.966   4.128 -3.3361 -5.2439  0.0084
  209PVA    C1635411   0.012   1.963   3.991 -0.4392  0.9080  0.4116
  209PVA    H3135412   0.076   1.878   3.962 -0.0694  1.5090 -0.5744
  209PVA    H3235413   7.720   1.959   3.897 -0.5424  2.3033  0.4010
  209PVA    C1735414   0.097   2.108   3.995  0.8467 -0.2066 -0.2756
  209PVA    H3335415   0.182   2.078   4.058  0.6178 -1.5808 -0.5835
  209PVA     O635416   0.039   2.193   4.093  0.9446 -0.7031 -0.1396
  209PVA    H3435417   7.734   2.154   4.147  1.3153 -1.2300 -0.0296
  209PVA    C1835418   0.156   2.181   3.867 -0.8453 -0.4215  0.2963
  209PVA    H3535419   0.238   2.115   3.837  1.0662  1.5527  0.8572
  209PVA    H3635420   0.087   2.191   3.783 -0.1594 -1.2677 -0.3892
  209PVA    C1935421   0.228   2.328   3.889 -0.3788 -0.0221  0.2180
  209PVA    H3735422   0.308   2.331   3.965  0.1210  2.0927 -0.3090
  209PVA    H3835423   0.157   2.389   3.946 -2.0254 -3.4550  2.1018
  209PVA    C2035424   0.299   2.409   3.772 -0.1410  0.4059 -0.0637
  209PVA    H3935425   0.224   2.466   3.716 -0.2335  0.8012  0.4621
  209PVA     O735426   0.357   2.308   3.689 -0.2789 -0.4858 -0.6171
  209PVA    H4035427   0.289   2.255   3.646 -0.8221  2.4743 -3.8301
  209PVA    C2135428   0.402   2.518   3.814 -1.0353 -1.2432 -0.1472
  209PVA    H4135429   0.495   2.462   3.833  0.7107 -0.9103 -5.7796
  209PVA    H4235430   0.384   2.577   3.905  0.9679 -0.2080 -0.3686
  209PVA    C2235431   0.433   2.616   3.693  0.1227  0.3275  0.6080
  209PVA    H4335432   0.389   2.578   3.600  0.5305 -3.8576  1.9404
  209PVA    H4435433   0.357   2.695   3.696 -3.0194 -2.4523 -0.6567
  209PVA    C2335434   0.580   2.665   3.676  1.0159 -0.4079  0.2574
  209PVA    H4535435   0.623   2.683   3.776 -0.0198  0.0308  0.6341
  209PVA     O835436   0.653   2.546   3.643 -0.3410 -0.2129  0.2374
  209PVA    H4635437   0.616   2.492   3.715 -3.1327  1.0653 -0.0830
  209PVA    C2435438   0.616   2.789   3.581 -0.1437  1.0446 -0.8295
  209PVA    H4735439   0.581   2.886   3.618 -3.7595 -0.4321  0.0379
  209PVA    H4835440   0.548   2.774   3.497 -0.0231 -2.7777 -0.4370
  209PVA    C2535441   0.765   2.810   3.516 -0.4503 -0.2398  0.4207
  209PVA    H4935442   0.838   2.788   3.595 -1.9800  1.3186  2.3887
  209PVA    H5035443   0.781   2.726   3.447 -2.7528 -0.8626  0.5657
  209PVA    C2635444   0.787   2.958   3.456 -1.7714 -0.3643 -0.7481
  209PVA    H5135445   0.734   3.033   3.516  0.0873  1.2247 -1.0038
  209PVA     O935446   0.720   2.950   3.325 -0.6228  0.9101 -0.1631
  209PVA    H5235447   0.628   2.924   3.336  0.4547 -2.8028  1.6107
  209PVA    C2735448   0.933   3.025   3.443 -1.4272 -1.6768  1.0715
  209PVA    H5335449   0.972   2.968   3.359 -0.2974 -0.6854  0.8974
  209PVA    H5435450   0.999   2.984   3.520  3.1644  3.6198  0.5807
  209PVA    C2835451   0.928   3.182   3.435  0.1473  0.7334 -0.1228
  209PVA    H5535452   0.842   3.212   3.374  1.5338 -2.7579 -4.2510
  209PVA    H5635453   0.895   3.216   3.534 -6.3260  2.2653 -2.3057
  209PVA    C2935454   1.057   3.246   3.369  0.2990  0.1876 -0.2509
  209PVA    H5735455   1.151   3.205   3.407 -0.4257 -0.1623  1.2304
  209PVA    O1035456   1.046   3.208   3.237 -0.5229  0.3923  0.1455
  209PVA    H5835457   0.958   3.203   3.195  2.3063  0.4152 -7.2639
  209PVA    C3035458   1.072   3.404   3.366 -0.0247 -0.9327 -0.5829
  209PVA    H5935459   1.074   3.450   3.465 -0.6447  1.5926 -1.6803
  209PVA    H6035460   0.979   3.440   3.321  0.3558  0.8595  0.0046
  209PVA    C3135461   1.198   3.455   3.292  0.3784 -0.2431 -0.6094
  209PVA    H6135462   1.217   3.408   3.195 -2.1126 -0.0692 -1.2385
  209PVA    H6235463   1.278   3.416   3.356  2.3463  1.0548 -2.1598
  209PVA    C3235464   1.232   3.614   3.287 -0.3952 -0.5700 -0.1606
  209PVA    H6335465   1.198   3.660   3.381  1.2528  2.0115 -0.7439
  209PVA    O1135466   1.155   3.667   3.177 -0.3602 -0.4305 -0.4226
  209PVA    H6435467   1.212   3.734   3.135  1.4008 -3.3517 -3.2602
  209PVA    C3335468   1.381   3.655   3.251  0.9916  0.6691  0.1890
  209PVA    H6535469   1.410   3.597   3.163  0.1691  1.1682 -0.4209
  209PVA    H6635470   1.428   3.634   3.348  0.7455  0.4678  0.2670
  209PVA    C3435471   1.415   3.804   3.230  0.6876  0.2040  0.6239
  209PVA    H6735472   1.372   3.829   3.133  4.0398 -4.0147 -2.3438
  209PVA    H6835473   1.353   3.869   3.294 -2.2334 -1.1316 -0.6810
  209PVA    C3535474   1.562   3.849   3.241 -0.5263  0.4874  0.1067
  209PVA    H6935475   1.556   3.863   3.350  5.3565  0.3076  0.7584
  209PVA    O1235476   1.645   3.737   3.215  0.1230  0.0244  0.3983
  209PVA    H7035477   1.737   3.762   3.195  0.1951 -1.2453 -1.0364
  209PVA    C3635478   1.624   3.987   3.213 -0.7745 -0.9609  0.6323
  209PVA    H7135479   1.653   3.989   3.107  3.5620 -4.4187  1.4577
  209PVA    H7235480   1.546   4.051   3.257 -1.5596 -2.1933  1.1131
  209PVA    C3735481   1.756   4.043   3.289 -0.8366  1.3933  0.0925
  209PVA    H7335482   1.741   4.078   3.392  2.0293  0.0484  1.0675
  209PVA    H7435483   1.817   3.956   3.315 -2.7534  0.7098  2.6862
  209PVA    C3835484   1.840   4.148   3.201  0.6884 -0.2930  0.3137
  209PVA    H7535485   1.881   4.102   3.110 -1.7427 -0.6259 -0.6769
  209PVA    O1335486   1.760   4.242   3.141  0.0084 -0.0378  0.4522
  209PVA    H7635487   1.729   4.293   3.218  1.8045  2.7209 -0.4646
  209PVA    C3935488   1.965   4.208   3.282  0.5555 -0.4207  0.1436
  209PVA    H7735489   2.014   4.126   3.336 -3.1712 -1.5585  2.1507
  209PVA    H7835490   1.916   4.257   3.366 -2.4242 -5.2561  1.6136
  209PVA    C4035491   2.072   4.311   3.211  0.7195 -2.3979  0.1718
  209PVA    H7935492   2.174   4.270   3.213  1.5631 -0.4573  2.9540
  209PVA    H8035493   2.052   4.304   3.104 -1.3873 -0.1029  0.3381
  209PVA    C4135494   2.064   4.475   3.247  1.3693  0.6327  0.1075
  209PVA    H8135495   1.976   4.515   3.195  0.4845 -0.9696  0.2927
  209PVA    O1435496   2.059   4.491   3.390 -0.3614  0.6644  0.7303
  209PVA    H8235497   2.124   4.429   3.427 -2.1901  0.4566  3.9499
  209PVA    C4235498   2.190   4.558   3.198 -0.1552 -0.3409  0.4543
  209PVA    H8335499   2.266   4.536   3.274  2.1848 -0.1027 -1.6892
  209PVA    H8435500   2.227   4.510   3.107 -2.7092 -3.8473  1.0063
  209PVA    C4335501   2.202   4.723   3.183 -0.6758 -0.5094 -0.5216
  209PVA    H8535502   2.193   4.766   3.284 -0.6189  0.5108 -0.9339
  209PVA    H8635503   2.111   4.765   3.138  0.7052  2.1221 -1.0818
  209PVA    C4435504   2.316   4.785   3.088  0.2410 -0.4152  0.4230
  209PVA    H8735505   2.391   4.716   3.048  2.4512  2.9861 -1.8745
  209PVA    O1535506   2.378   4.893   3.152  0.0894  0.3566 -0.9403
  209PVA    H8835507   2.418   4.939   3.077  2.2878  0.4313  0.1948
  209PVA    C4535508   2.250   4.886   2.976 -0.9585  0.1769  0.2393
  209PVA    H8935509   2.215   4.985   3.008 -0.7645  0.3351 -0.0292
  209PVA    H9035510   2.164   4.838   2.927 -1.4263 -1.9865  2.9496
  209PVA    C4635511   2.340   4.920   2.845 -0.1398 -1.2670 -0.2814
  209PVA    H9135512   2.323   4.853   2.760  1.2771  0.8500 -2.3727
  209PVA    H9235513   2.448   4.901   2.855  0.1445 -0.4203 -1.5471
  209PVA    C4735514   2.317   5.064   2.777  0.3105 -0.5436  0.5007
  209PVA    H9335515   2.211   5.094   2.770  0.5974  0.2846 -0.4811
  209PVA    O1635516   2.369   5.158   2.873  0.6390 -0.5856 -0.2015
  209PVA    H9435517   2.381   5.241   2.824  1.7933 -0.5598  0.0830
  209PVA    C4835518   2.382   5.105   2.633 -0.2469  0.3758 -0.2714
  209PVA    H9535519   2.485   5.070   2.645 -0.6591 -0.2459  2.0398
  209PVA    H9635520   2.348   5.053   2.543  4.2271  4.0251 -4.6478
  209PVA    C4935521   2.392   5.254   2.579  0.1362  0.2542 -0.2583
  209PVA    H9735522   2.401   5.324   2.663  0.3015 -1.1033  0.8882
  209PVA    H9835523   2.294   5.283   2.540  1.7858  0.1888 -5.3299
  209PVA    C5035524   2.511   5.285   2.467 -1.6849 -0.6408  0.4802
  209PVA    H9935525   2.603   5.283   2.527 -0.9894 -1.1991 -0.5582
  209PVA    O1735526   2.518   5.189   2.346  0.6900 -0.3022  0.5676
  209PVA   H10035527   2.451   5.230   2.289 -1.7329 -2.0162  1.9866
  209PVA    C5135528   2.498   5.427   2.412  0.5933 -1.2914 -0.1303
  209PVA   H10135529   2.515   5.487   2.503 -1.0190 -3.6288  1.8477
  209PVA   H10235530   2.395   5.456   2.387  1.7625  2.0845 -1.6887
  210PVA     C135531   6.564   7.626   7.680  0.5937  0.1643 -0.4268
  210PVA     H135532   6.595   7.547   7.749  0.7010  2.1776  1.9664
  210PVA     H235533   6.580   7.597   7.575  0.8905 -3.2342  0.4414
  210PVA     C235534   6.625   0.084   7.720  0.3014  0.5513 -0.5171
  210PVA     H335535   6.603   0.133   7.624 -1.5805 -0.4618 -0.6637
  210PVA     O135536   6.561   0.153   7.823 -0.1282 -0.5072 -0.1297
  210PVA     H435537   6.563   0.105   7.907  0.2862 -1.0959 -0.4661
  210PVA     C335538   6.774   0.074   7.748  0.7639 -0.5059 -0.2858
  210PVA     H535539   6.826   0.025   7.664  2.6950 -2.0239  1.6527
  210PVA     H635540   6.772   7.677   7.821 -4.1976 -0.2256  0.1793
  210PVA     C435541   6.863   0.192   7.810  0.7051  0.1883  0.4500
  210PVA     H735542   6.898   0.251   7.725  0.1962  1.0281  0.8110
  210PVA     H835543   6.805   0.265   7.867  0.4000 -0.5690  1.1425
  210PVA     C535544   6.984   0.155   7.909 -0.4995  0.2234 -0.4709
  210PVA     H935545   7.014   0.052   7.884 -2.2388 -0.8631  1.5452
  210PVA     O235546   6.951   0.152   8.049 -0.0181  0.6121  0.1841
  210PVA    H1035547   6.965   0.244   8.078  0.1041  1.0701 -1.2522
  210PVA     C635548   7.119   0.242   7.907  0.4931  0.4180 -0.9949
  210PVA    H1135549   7.141   0.274   8.009  0.7972 -0.7014 -0.6911
  210PVA    H1235550   7.097   0.334   7.851 -2.5262 -0.9789 -2.2965
  210PVA     C735551   7.264   0.179   7.863 -1.0174 -0.2774  0.3349
  210PVA    H1335552   7.281   0.085   7.916 -0.3813 -0.8144 -0.7830
  210PVA    H1435553   7.252   0.142   7.760 -1.1893 -2.4104  1.0879
  210PVA     C835554   7.384   0.266   7.886 -0.4369 -0.2678  0.0893
  210PVA    H1535555   7.369   0.359   7.830 -2.5058  1.1399  2.7625
  210PVA     O335556   7.394   0.286   8.023  0.2873 -1.0342 -0.2436
  210PVA    H1635557   7.419   0.206   8.074 -1.6381 -1.7290 -0.2727
  210PVA     C935558   7.514   0.196   7.838 -0.4798  0.3491 -0.3579
  210PVA    H1735559   7.507   0.197   7.729  1.2052  3.4107 -0.5532
  210PVA    H1835560   7.522   0.091   7.870  1.5479  0.7254  0.5284
  210PVA    C1035561   7.647   0.270   7.881  0.0562  0.0183 -0.8441
  210PVA    H1935562   7.660   0.372   7.841 -1.5228  1.0730  1.1462
  210PVA    H2035563   7.622   0.302   7.982 -0.3023  1.9156 -1.4943
  210PVA    C1135564   0.009   0.183   7.870 -0.6108 -0.9377  0.8488
  210PVA    H2135565   7.727   0.089   7.901 -6.7884  0.2489 -3.1201
  210PVA     O435566   0.038   0.168   7.736 -0.3690 -0.5423  0.6410
  210PVA    H2235567   0.121   0.117   7.734  1.5728  2.2433  3.0761
  210PVA    C1235568   0.145   0.213   7.941  0.1787  0.8765  0.3975
  210PVA    H2335569   0.122   0.244   8.044 -2.7376  0.5232 -0.0665
  210PVA    H2435570   0.197   0.300   7.900  0.7006  1.2001  1.6948
  210PVA    C1335571   0.246   0.090   7.935  0.6836 -0.2149 -0.3728
  210PVA    H2535572   0.197   0.017   8.001  0.1545  0.5217  0.0681
  210PVA    H2635573   0.263   0.060   7.830 -0.9593 -1.3557 -0.3444
  210PVA    C1435574   0.387   0.104   7.990 -0.5158  0.0388  0.7809
  210PVA    H2735575   0.371   0.125   8.097  0.8393  0.4222  0.9255
  210PVA     O535576   0.443   0.200   7.915 -0.5819 -0.0942 -0.0446
  210PVA    H2835577   0.421   0.278   7.970  0.2112 -0.6047  1.0378
  210PVA    C1535578   0.472   7.656   7.975 -0.1298 -0.9212 -0.0559
  210PVA    H2935579   0.525   7.662   7.879  2.3713  2.9242  1.2883
  210PVA    H3035580   0.394   7.581   7.962 -3.7420  1.7772  3.5858
  210PVA    C1635581   0.568   7.627   0.005 -0.1304  0.1276  0.6773
  210PVA    H3135582   0.649   0.016   8.090  1.3593 -0.8544  3.6629
  210PVA    H3235583   0.525   7.651   0.103  2.9866  1.6668  1.8118
  210PVA    C1735584   0.652   7.495   0.010  0.7519  0.1916 -0.0011
  210PVA    H3335585   0.590   7.408   0.038  5.9161 -3.8883  0.4197
  210PVA     O635586   0.707   7.473   7.979  0.6566 -0.5972  1.3478
  210PVA    H3435587   0.651   7.486   7.901  2.7727  2.1624  0.1098
  210PVA    C1835588   0.769   7.493   0.117  0.5655  1.3974 -0.2204
  210PVA    H3535589   0.798   7.597   0.138  0.3791  1.8060 -1.8562
  210PVA    H3635590   0.711   7.465   0.206 -1.4977 -0.5195 -2.0569
  210PVA    C1935591   0.886   7.385   0.113 -0.5523 -0.3706  0.2452
  210PVA    H3735592   0.822   7.301   0.084 -2.1086  0.6379  0.6860
  210PVA    H3835593   0.921   7.358   0.214 -0.6849 -0.4469  0.2705
  210PVA    C2035594   1.014   7.414   0.023  1.7690  0.1475  0.1594
  210PVA    H3935595   1.016   7.522   0.003  1.7597  0.3787  1.3357
  210PVA     O735596   0.981   7.369   7.986  0.0619 -0.3684 -1.3474
  210PVA    H4035597   0.886   7.352   7.976  0.4881 -1.4306 -4.6484
  210PVA    C2135598   1.151   7.349   0.071  0.9798 -0.1869 -0.1728
  210PVA    H4135599   1.174   7.286   8.081  1.0105 -1.6928  0.8996
  210PVA    H4235600   1.113   7.288   0.153 -0.4603  5.0608  3.5987
  210PVA    C2235601   1.276   7.434   0.119 -0.1049  0.1429  1.3284
  210PVA    H4335602   1.300   7.495   0.031  0.4167 -1.9271 -0.0444
  210PVA    H4435603   1.257   7.510   0.197 -1.6304 -0.9709  2.0852
  210PVA    C2335604   1.409   7.356   0.152  0.4464  0.3647 -0.6871
  210PVA    H4535605   1.393   7.248   0.148 -3.4725  0.7504  0.0611
  210PVA     O835606   1.502   7.416   0.055  0.6423 -0.5712 -1.2012
  210PVA    H4635607   1.577   7.372   0.012  0.3503 -2.0266 -0.2781
  210PVA    C2435608   1.480   7.385   0.297  0.2974 -0.8316 -0.2023
  210PVA    H4735609   1.456   7.492   0.296 -3.0471 -1.3736  2.0688
  210PVA    H4835610   1.413   7.328   0.364 -2.2093 -1.2299 -2.8562
  210PVA    C2535611   1.629   7.328   0.307 -0.0032 -0.1427  0.6802
  210PVA    H4935612   1.684   7.398   0.243 -0.7784 -2.0488 -2.2704
  210PVA    H5035613   1.636   7.236   0.247  1.0716  2.0229 -2.8531
  210PVA    C2635614   1.705   7.315   0.438  1.3909 -0.5340  0.8421
  210PVA    H5135615   1.749   7.215   0.426  2.9568  0.2906 -0.8077
  210PVA     O935616   1.648   7.333   0.558  0.5754 -0.3751 -0.6673
  210PVA    H5235617   1.668   7.260   0.619  1.5221  0.7047  0.3566
  210PVA    C2735618   1.840   7.393   0.460 -0.7889 -0.2587  0.7377
  210PVA    H5335619   1.904   7.372   0.374 -3.4834 -1.5898 -1.0908
  210PVA    H5435620   1.832   7.501   0.440  4.8109 -0.0599 -2.1042
  210PVA    C2835621   1.909   7.402   0.595  0.1996 -1.4771 -0.0678
  210PVA    H5535622   1.841   7.455   0.662  1.6718  0.1922  0.1862
  210PVA    H5635623   1.911   7.307   0.649 -4.0541 -0.3678  2.4928
  210PVA    C2935624   2.061   7.460   0.617  0.5121 -0.2322 -0.8151
  210PVA    H5735625   2.142   7.424   0.551 -0.0685 -1.8126 -0.7156
  210PVA    O1035626   2.064   7.594   0.587  0.7657  0.1438 -0.6078
  210PVA    H5835627   1.984   7.645   0.609  1.1625  0.7989 -0.6625
  210PVA    C3035628   2.116   7.437   0.757 -1.1588  0.4248  0.1327
  210PVA    H5935629   2.057   7.473   0.842 -1.4352 -0.5657  0.3815
  210PVA    H6035630   2.127   7.330   0.779  0.8426  0.6376  0.4383
  210PVA    C3135631   2.263   7.487   0.779 -0.5132 -0.1345 -0.5972
  210PVA    H6135632   2.258   7.596   0.767  0.2640 -0.1560 -1.2108
  210PVA    H6235633   2.324   7.452   0.695 -1.0885  2.1430 -2.0460
  210PVA    C3235634   2.327   7.427   0.909  0.9879 -0.0566  0.3358
  210PVA    H6335635   2.257   7.351   0.946 -0.4865  0.9716 -0.2365
  210PVA    O1135636   2.294   7.521   1.010 -0.3658  0.1217  0.4946
  210PVA    H6435637   2.383   7.549   1.037 -0.3485 -0.9905  1.6604
  210PVA    C3335638   2.475   7.397   0.906 -0.5276 -0.4400 -0.6743
  210PVA    H6535639   2.524   7.491   0.875 -4.0016  2.6924  2.3138
  210PVA    H6635640   2.491   7.343   0.812 -4.5551 -0.2694 -1.6554
  210PVA    C3435641   2.530   7.342   1.042 -0.4618 -1.1789 -0.0517
  210PVA    H6735642   2.567   7.430   1.096  2.0224 -1.4208 -1.2173
  210PVA    H6835643   2.444   7.304   1.099 -1.0320  0.7198  0.4303
  210PVA    C3535644   2.644   7.248   1.037 -0.6663 -0.8182 -0.5700
  210PVA    H6935645   2.629   7.171   0.961  2.9198  1.0144 -3.4795
  210PVA    O1235646   2.743   7.324   0.988  0.0096  0.2081  0.0363
  210PVA    H7035647   2.799   7.279   0.923 -0.1655 -0.2671  0.2087
  210PVA    C3635648   2.696   7.182   1.171  0.2748 -0.8933 -0.3317
  210PVA    H7135649   2.806   7.176   1.170  0.2293 -1.8543 -0.1141
  210PVA    H7235650   2.676   7.254   1.252 -2.9287  0.4918 -2.1842
  210PVA    C3735651   2.620   7.056   1.203 -0.7735 -0.4114  0.8668
  210PVA    H7335652   2.633   6.980   1.126  1.3087  1.2377 -0.5477
  210PVA    H7435653   2.512   7.073   1.195 -0.9436 -1.2329  1.3146
  210PVA    C3835654   2.670   6.965   1.324 -0.3051  0.2187 -0.5349
  210PVA    H7535655   2.668   7.036   1.407  0.5321  1.7678 -1.7898
  210PVA    O1335656   2.804   6.924   1.305 -0.4372  0.4354  0.2941
  210PVA    H7635657   2.858   7.003   1.293  0.2501  1.0156  5.1622
  210PVA    C3935658   2.582   6.823   1.362  0.3183 -0.9158  0.4871
  210PVA    H7735659   2.514   6.840   1.446 -0.0693 -1.9950  0.4133
  210PVA    H7835660   2.507   6.795   1.287  0.2698  0.0622  0.1509
  210PVA    C4035661   2.660   6.694   1.400  0.0629 -0.0212 -0.5562
  210PVA    H7935662   2.680   6.649   1.302  0.0837  1.8696 -1.4753
  210PVA    H8035663   2.752   6.729   1.448  0.0548  0.6307 -0.9951
  210PVA    C4135664   2.593   6.590   1.480 -0.2485 -0.1876  0.6126
  210PVA    H8135665   2.501   6.599   1.420 -0.0174  1.5428  0.4524
  210PVA    O1435666   2.523   6.643   1.596 -0.2879 -0.0738 -0.3283
  210PVA    H8235667   2.467   6.718   1.572  3.4779  3.1858 -0.0637
  210PVA    C4235668   2.654   6.445   1.501  0.0940  0.1017 -0.7669
  210PVA    H8335669   2.751   6.457   1.551  1.1737  0.8631 -2.8944
  210PVA    H8435670   2.590   6.389   1.570  1.8116  1.5467  2.1911
  210PVA    C4335671   2.662   6.350   1.373 -0.3049  0.0345  0.2593
  210PVA    H8535672   2.714   6.400   1.289  2.1862 -0.3056  1.4959
  210PVA    H8635673   2.558   6.335   1.340 -0.3405  5.0289 -3.0762
  210PVA    C4435674   2.739   6.218   1.400  0.7329  0.7123 -1.0605
  210PVA    H8735675   2.735   6.161   1.306  2.5158  2.4364 -2.2555
  210PVA    O1535676   2.870   6.267   1.430  0.6371  0.0015 -0.4752
  210PVA    H8835677   2.939   6.200   1.441  0.3320  0.1580  3.8228
  210PVA    C4535678   2.675   6.125   1.510 -0.5444  0.4829  0.0200
  210PVA    H8935679   2.566   6.118   1.495 -0.2508 -0.3797 -2.1233
  210PVA    H9035680   2.682   6.186   1.601  2.1655 -0.3686  0.4566
  210PVA    C4635681   2.761   5.995   1.529 -0.5544  1.5568  0.4996
  210PVA    H9135682   2.743   5.922   1.449  1.4042  1.2874  0.2676
  210PVA    H9235683   2.868   6.015   1.523  0.0045 -1.3549 -2.6026
  210PVA    C4735684   2.724   5.903   1.645 -0.6921  0.5225  0.1700
  210PVA    H9335685   2.699   5.956   1.738 -3.2544  0.2166 -0.2811
  210PVA    O1635686   2.855   5.843   1.677 -0.2364 -0.3442  0.1320
  210PVA    H9435687   2.917   5.917   1.690 -1.8838  0.8898  1.3944
  210PVA    C4835688   2.616   5.792   1.638 -0.0864 -0.1360 -0.9984
  210PVA    H9535689   2.522   5.847   1.621 -2.1201 -3.2363 -0.5944
  210PVA    H9635690   2.634   5.716   1.561  4.1298 -1.1924  0.7511
  210PVA    C4935691   2.599   5.714   1.776  0.3006 -0.2342 -0.7672
  210PVA    H9735692   2.540   5.780   1.841 -2.6588 -4.2395  1.0471
  210PVA    H9835693   2.700   5.705   1.818  0.1676 -0.0961 -0.4134
  210PVA    C5035694   2.548   5.573   1.791  0.4420 -0.7220  0.1310
  210PVA    H9935695   2.570   5.538   1.690 -0.0379  1.6037 -0.8573
  210PVA    O1735696   2.412   5.560   1.816 -0.5294 -0.4909  0.8116
  210PVA   H10035697   2.352   5.538   1.743 -0.3675 -0.5994  0.7120
  210PVA    C5135698   2.613   5.486   1.906  0.7303  1.1603  0.1951
  210PVA   H10135699   2.579   5.382   1.893 -1.8125  1.6983  1.7794
  210PVA   H10235700   2.720   5.488   1.884  0.5137 -0.0741 -1.0575
  211PVA     C135701   6.135   0.068   7.438  0.3158 -0.0188  0.2644
  211PVA     H135702   6.027   0.054   7.446  0.5641 -1.2568  2.4620
  211PVA     H235703   6.151   0.025   7.338  0.9035 -3.3161  1.6149
  211PVA     C235704   6.146   0.229   7.451  0.4016  0.4796  0.2171
  211PVA     H335705   6.247   0.270   7.443  1.0539 -1.2984 -1.6582
  211PVA     O135706   6.090   0.276   7.566  0.3219 -0.6314  0.3233
  211PVA     H435707   5.997   0.248   7.557  1.1147 -3.6915  0.5596
  211PVA     C335708   6.057   0.296   7.343  1.0339  0.6029  0.1096
  211PVA     H535709   6.131   0.348   7.281  2.5896 -0.6116  0.8869
  211PVA     H635710   6.009   0.224   7.275 -0.4781  1.0846  0.6366
  211PVA     C435711   5.950   0.406   7.382  0.4253 -0.0550  0.0411
  211PVA     H735712   5.896   0.371   7.470 -1.0106 -6.0511 -2.6841
  211PVA     H835713   5.987   0.507   7.407  0.1755 -0.0019  0.1956
  211PVA     C535714   5.831   0.429   7.280  0.2920 -0.0213  0.8778
  211PVA     H935715   5.786   0.331   7.259  1.1672 -0.0993 -0.7981
  211PVA     O235716   5.876   0.484   7.158 -0.1215  0.7723  0.8445
  211PVA    H1035717   5.956   0.537   7.176  0.4289 -1.0864  4.8760
  211PVA     C635718   5.715   0.505   7.331 -0.3136 -0.8952 -0.3622
  211PVA    H1135719   5.685   0.450   7.421  0.1525  1.5401  1.3620
  211PVA    H1235720   5.729   0.612   7.350 -0.1782 -1.3847  2.9145
  211PVA     C735721   5.577   0.511   7.248 -0.6013 -0.1105 -0.5845
  211PVA    H1335722   5.571   0.418   7.191 -0.8782 -1.3211  1.3388
  211PVA    H1435723   5.565   0.584   7.166 -2.4774  2.2209  1.5872
  211PVA     C835724   5.443   0.506   7.331  0.2118  0.1397 -0.9309
  211PVA    H1535725   5.430   0.432   7.411 -1.8562 -0.2779 -1.5984
  211PVA     O335726   5.434   0.633   7.392  0.3053 -1.3213 -0.4693
  211PVA    H1635727   5.417   0.696   7.320  2.2494  3.6012  2.8735
  211PVA     C935728   5.316   0.485   7.239 -0.4580  0.6712  0.2386
  211PVA    H1735729   5.230   0.513   7.301  0.9906  3.4709  1.1747
  211PVA    H1835730   5.316   0.547   7.149 -0.5601 -0.2594 -0.4247
  211PVA    C1035731   5.300   0.328   7.207  0.0918  0.0388  0.4812
  211PVA    H1935732   5.400   0.302   7.172  1.7061  2.3365  3.0374
  211PVA    H2035733   5.294   0.269   7.300  1.3496  1.5580  1.5897
  211PVA    C1135734   5.198   0.277   7.095 -0.1145 -1.7407 -0.2140
  211PVA    H2135735   5.170   0.363   7.034 -2.2436 -2.1521  0.1270
  211PVA     O435736   5.073   0.247   7.160 -0.3473 -0.4501  0.9623
  211PVA    H2235737   5.074   0.152   7.183  0.3769 -0.5702  0.4548
  211PVA    C1235738   5.251   0.153   7.025 -1.1857  0.2165  0.4375
  211PVA    H2335739   5.269   0.065   7.089  0.6777 -0.3504 -0.7856
  211PVA    H2435740   5.350   0.168   6.980 -1.5366  4.7688  0.7146
  211PVA    C1335741   5.156   0.121   6.897  0.0442 -0.9440  0.5541
  211PVA    H2535742   5.062   0.076   6.930 -1.8634  2.1928 -0.1642
  211PVA    H2635743   5.130   0.220   6.857  2.0017 -0.8796 -0.6664
  211PVA    C1435744   5.218   0.028   6.791  1.4096  0.6185 -0.0161
  211PVA    H2735745   5.314   0.073   6.762  2.1035 -0.0596  1.1577
  211PVA     O535746   5.252   7.579   6.849  0.0319  0.2098  0.1348
  211PVA    H2835747   5.318   7.587   6.919  1.2295 -5.6550  0.2218
  211PVA    C1535748   5.120   0.004   6.669 -0.2982  0.0523  0.5592
  211PVA    H2935749   5.074   0.093   6.626  1.5143 -0.5175 -2.8775
  211PVA    H3035750   5.033   7.624   6.687  1.3470 -2.6511 -0.6182
  211PVA    C1635751   5.194   7.606   6.558 -1.6792  0.4913  0.4930
  211PVA    H3135752   5.281   7.660   6.519 -1.7512  0.2945  0.0603
  211PVA    H3235753   5.246   7.520   6.601  2.0155  2.3959  0.2086
  211PVA    C1735754   5.116   7.565   6.436 -1.6758  1.0990  0.2412
  211PVA    H3335755   5.063   7.474   6.466  1.1239 -0.3848  0.9826
  211PVA     O635756   5.030   7.654   6.379  0.4895  0.8610 -0.4185
  211PVA    H3435757   5.001   0.026   6.453 -1.7672 -2.4972  1.5539
  211PVA    C1835758   5.219   7.502   6.323  0.1885 -0.6798  0.8347
  211PVA    H3535759   5.282   7.589   6.300 -3.3917  1.0417 -4.5405
  211PVA    H3635760   5.288   7.419   6.343 -1.0080 -1.4923  1.6838
  211PVA    C1935761   5.159   7.478   6.191 -0.3335  0.3643  0.1664
  211PVA    H3735762   5.135   7.568   6.133 -0.7515 -0.8873 -1.6890
  211PVA    H3835763   5.057   7.437   6.201 -0.7147  1.0740 -0.6145
  211PVA    C2035764   5.248   7.386   6.097 -0.0102  1.2553  0.8651
  211PVA    H3935765   5.247   7.286   6.143 -1.5463 -0.1676 -1.9607
  211PVA     O735766   5.374   7.438   6.081 -0.0565 -0.4408 -0.2890
  211PVA    H4035767   5.393   7.464   6.173 -0.1881  2.7643 -1.0465
  211PVA    C2135768   5.185   7.366   5.953 -0.1486  0.0534  0.7129
  211PVA    H4135769   5.108   7.291   5.975 -1.8288  1.3201 -0.6227
  211PVA    H4235770   5.129   7.458   5.932  0.0786 -0.3034 -1.7791
  211PVA    C2235771   5.261   7.322   5.827 -0.0119 -1.1873 -0.7995
  211PVA    H4335772   5.341   7.394   5.804 -1.3993  0.3710 -0.9272
  211PVA    H4435773   5.309   7.226   5.848 -1.2293 -1.7195 -0.3540
  211PVA    C2335774   5.181   7.303   5.698 -0.7629 -0.3534  0.4187
  211PVA    H4535775   5.171   7.405   5.658  2.9198  0.0438  0.1323
  211PVA     O835776   5.060   7.237   5.710 -1.1119  0.3749 -0.1934
  211PVA    H4635777   5.065   7.156   5.655 -0.7884 -0.1658  0.6124
  211PVA    C2435778   5.261   7.222   5.580  0.7446 -0.0634  0.1166
  211PVA    H4735779   5.357   7.276   5.580  0.6263  0.1966 -1.8205
  211PVA    H4835780   5.284   7.124   5.623  1.5799  0.6831  1.4444
  211PVA    C2535781   5.202   7.224   5.439  0.6372  0.4516 -0.1772
  211PVA    H4935782   5.151   7.320   5.430 -3.5480 -1.7007 -2.9982
  211PVA    H5035783   5.117   7.158   5.415 -1.6595  3.8239 -2.1889
  211PVA    C2635784   5.310   7.198   5.325 -0.5270  0.5282  0.0998
  211PVA    H5135785   5.374   7.288   5.332  0.6882 -0.3434  0.5581
  211PVA     O935786   5.375   7.073   5.362  0.0132 -0.0649  0.2399
  211PVA    H5235787   5.469   7.083   5.338  0.4480 -1.8112  1.0576
  211PVA    C2735788   5.259   7.193   5.172 -0.5751  1.2869  0.6183
  211PVA    H5335789   5.253   7.300   5.149  2.9239  1.5203  0.2225
  211PVA    H5435790   5.159   7.155   5.195  0.6334 -0.0487  4.4449
  211PVA    C2835791   5.328   7.094   5.063  0.8728  0.2242 -0.6080
  211PVA    H5535792   5.432   7.127   5.046  0.6627  0.5302 -1.3461
  211PVA    H5635793   5.320   7.001   5.121 -0.3737 -0.7467 -2.2470
  211PVA    C2935794   5.261   7.114   4.924  0.1903 -0.2106  0.0793
  211PVA    H5735795   5.272   7.217   4.888  0.0556 -0.9885 -2.4615
  211PVA    O1035796   5.121   7.077   4.936 -0.8962  0.6953  1.1978
  211PVA    H5835797   5.077   7.160   4.909 -0.1281  0.3441 -1.2935
  211PVA    C3035798   5.343   7.052   4.811 -0.6309  0.7836 -0.2267
  211PVA    H5935799   5.416   7.132   4.794 -2.3450  2.7281  0.9525
  211PVA    H6035800   5.398   6.965   4.847 -2.0367 -0.3832 -0.8160
  211PVA    C3135801   5.277   7.008   4.686 -0.0091 -0.7444  0.0677
  211PVA    H6135802   5.203   6.927   4.692  0.7583 -1.4015  0.8541
  211PVA    H6235803   5.369   6.975   4.635  0.4124 -0.0165  0.3489
  211PVA    C3235804   5.206   7.120   4.607  0.3726  0.1191  0.4222
  211PVA    H6335805   5.268   7.211   4.607  4.7566 -2.5917  0.9838
  211PVA    O1135806   5.083   7.134   4.683 -0.9195  0.1024 -0.0029
  211PVA    H6435807   5.066   7.047   4.724  0.0487  0.9697  2.3901
  211PVA    C3335808   5.171   7.087   4.464  0.3841  0.4306  0.0558
  211PVA    H6535809   5.114   6.993   4.470  0.5676  0.3921  1.5442
  211PVA    H6635810   5.262   7.054   4.412  0.2823  0.3698 -0.0873
  211PVA    C3435811   5.087   7.178   4.366  0.0012 -0.0100 -0.3030
  211PVA    H6735812   5.034   7.247   4.433 -3.2921 -2.6826  0.1043
  211PVA    H6835813   5.162   7.237   4.311 -0.2613 -3.2457 -4.6014
  211PVA    C3535814   4.982   7.112   4.261 -0.0406 -0.5984 -0.0012
  211PVA    H6935815   4.909   7.049   4.312 -2.7419  3.3746  1.5518
  211PVA    O1235816   5.056   7.057   4.160 -0.1067 -0.3601 -0.7189
  211PVA    H7035817   5.133   7.117   4.151  1.6909 -2.3267  0.6402
  211PVA    C3635818   4.887   7.219   4.194  0.3510 -0.2449 -0.7166
  211PVA    H7135819   4.858   7.309   4.249 -0.9377  0.4876 -2.5160
  211PVA    H7235820   4.935   7.261   4.105 -1.2831  3.1975 -0.1402
  211PVA    C3735821   4.752   7.150   4.161  0.1421  0.2160 -0.2789
  211PVA    H7335822   4.779   7.063   4.099 -1.9490  0.9075 -2.2970
  211PVA    H7435823   4.722   7.094   4.251 -0.7453  1.3455  0.1564
  211PVA    C3835824   4.638   7.243   4.088 -0.5611 -0.4768  0.3160
  211PVA    H7535825   4.684   7.312   4.017 -0.2096 -1.7939 -0.7853
  211PVA    O1335826   4.600   7.337   4.183 -0.7021 -1.0754  0.6148
  211PVA    H7635827   4.547   7.285   4.246  0.9266 -0.0315  3.0166
  211PVA    C3935828   4.507   7.168   4.027  0.4005  0.0160 -0.5525
  211PVA    H7735829   4.433   7.154   4.107 -0.0918 -0.7167 -1.1164
  211PVA    H7835830   4.525   7.073   3.974  2.2544 -0.8004  1.3954
  211PVA    C4035831   4.443   7.265   3.926  0.5080  0.0691 -0.3247
  211PVA    H7935832   4.382   7.320   3.998  1.0658  3.0047 -1.9360
  211PVA    H8035833   4.523   7.336   3.904 -2.0952  2.5492 -2.4724
  211PVA    C4135834   4.362   7.214   3.787  0.0421  0.2184 -0.3813
  211PVA    H8135835   4.259   7.191   3.817  1.2894 -0.4065  4.3210
  211PVA    O1435836   4.339   7.329   3.714 -0.3320  0.2046  0.6436
  211PVA    H8235837   4.258   7.376   3.741  0.4177  2.2323 -0.3756
  211PVA    C4235838   4.441   7.114   3.698  0.7495 -1.1078 -1.1697
  211PVA    H8335839   4.539   7.102   3.745  0.8398 -1.6755 -1.4886
  211PVA    H8435840   4.400   7.013   3.705  0.4340 -1.3095 -4.3975
  211PVA    C4335841   4.448   7.137   3.536  0.2495 -0.1263 -0.1484
  211PVA    H8535842   4.384   7.217   3.499  2.1413  1.4614 -0.1620
  211PVA    H8635843   4.542   7.186   3.507 -0.4571  2.5363  1.7400
  211PVA    C4435844   4.418   6.996   3.449 -0.0739 -0.8002 -1.0162
  211PVA    H8735845   4.339   6.943   3.502  0.3969 -0.3773  0.1319
  211PVA    O1535846   4.542   6.928   3.432  0.2027 -0.1446 -0.0188
  211PVA    H8835847   4.605   7.002   3.446 -0.9391  1.3147 -2.0462
  211PVA    C4535848   4.376   7.035   3.306 -0.3738 -0.1277 -1.1643
  211PVA    H8935849   4.457   7.089   3.256  2.0010 -0.6463  1.8655
  211PVA    H9035850   4.302   7.116   3.295  2.0897  2.4298  0.0673
  211PVA    C4635851   4.335   6.921   3.219 -0.6670 -0.0013  0.4818
  211PVA    H9135852   4.427   6.871   3.186 -0.0316  0.8094  0.9792
  211PVA    H9235853   4.309   6.855   3.302  1.8595  1.6258  2.7264
  211PVA    C4735854   4.248   6.918   3.090  0.8611 -0.0942 -1.3686
  211PVA    H9335855   4.153   6.960   3.127  1.7238  1.7049 -1.1120
  211PVA    O1635856   4.309   7.017   3.010  0.1941 -0.3106 -0.1428
  211PVA    H9435857   4.267   7.025   2.923  0.6809 -0.9176 -0.4372
  211PVA    C4835858   4.233   6.779   3.019 -0.0641  0.0243 -1.2005
  211PVA    H9535859   4.298   6.779   2.931 -0.6541  1.5078 -1.6687
  211PVA    H9635860   4.271   6.686   3.063  1.5079 -0.1200 -2.7775
  211PVA    C4935861   4.094   6.751   2.965 -0.9138  0.6669 -0.3115
  211PVA    H9735862   4.025   6.772   3.047  1.5216 -1.9819  2.6983
  211PVA    H9835863   4.077   6.643   2.962 -0.9277  0.6606 -0.0740
  211PVA    C5035864   4.050   6.817   2.838 -0.2407 -0.2930 -0.1177
  211PVA    H9935865   4.120   6.811   2.754  1.2758  0.5584  1.0384
  211PVA    O1735866   4.028   6.954   2.855 -0.5408 -0.0253 -0.6255
  211PVA   H10035867   3.950   6.976   2.909  0.2950 -1.5398  1.3530
  211PVA    C5135868   3.927   6.752   2.776 -0.3328  0.7964 -0.3225
  211PVA   H10135869   3.852   6.723   2.850  0.0846  1.0195  0.1934
  211PVA   H10235870   3.962   6.653   2.742  0.2769  1.3777 -1.4418
  212PVA     C135871   2.328   6.389   1.808 -0.8079 -0.1331  1.3094
  212PVA     H135872   2.353   6.360   1.705  1.5648 -0.4709  1.9059
  212PVA     H235873   2.245   6.320   1.831 -3.9129  3.2971  1.2838
  212PVA     C235874   2.277   6.537   1.801  0.1734  0.0179 -0.2222
  212PVA     H335875   2.344   6.591   1.733  0.7879 -0.4798 -0.0189
  212PVA     O135876   2.288   6.613   1.915 -0.2367 -0.1153 -0.3739
  212PVA     H435877   2.304   6.704   1.882 -0.6095  1.6651  3.7987
  212PVA     C335878   2.131   6.562   1.735 -0.4344 -0.9035 -0.0899
  212PVA     H535879   2.062   6.490   1.781 -0.0718  0.5103  2.9176
  212PVA     H635880   2.137   6.528   1.631 -0.3173 -0.4013 -0.2512
  212PVA     C435881   2.076   6.712   1.735  0.5098  0.5163  0.4330
  212PVA     H735882   2.065   6.741   1.840 -0.5050  3.4857 -0.3875
  212PVA     H835883   2.166   6.767   1.703  1.4130 -1.3866 -0.5042
  212PVA     C535884   1.962   6.761   1.635 -0.0190  0.7836 -0.0212
  212PVA     H935885   2.010   6.740   1.538  2.2658 -3.8945  1.7713
  212PVA     O235886   1.848   6.674   1.647 -0.1785 -1.0927  0.8253
  212PVA    H1035887   1.877   6.599   1.592 -1.5875 -1.9955  1.2575
  212PVA     C635888   1.918   6.911   1.640 -0.4587  0.3001 -0.2015
  212PVA    H1135889   1.848   6.898   1.724 -2.1513  1.9653 -1.2860
  212PVA    H1235890   1.996   6.985   1.665  1.8962 -2.4849  1.3782
  212PVA     C735891   1.848   6.965   1.508  0.2822  0.6142 -0.5180
  212PVA    H1335892   1.912   7.012   1.433 -0.6659  1.3736 -0.8654
  212PVA    H1435893   1.800   6.869   1.482 -0.2239 -0.8756  4.7946
  212PVA     C835894   1.720   7.064   1.546  0.3838  0.5178 -1.0747
  212PVA    H1535895   1.626   7.009   1.562  0.2117  0.8138 -1.0626
  212PVA     O335896   1.749   7.132   1.672  0.5580 -0.5477  0.1876
  212PVA    H1635897   1.755   7.080   1.754 -0.0617 -0.7928  0.0803
  212PVA     C935898   1.662   7.168   1.442  1.1300 -0.4724 -0.1711
  212PVA    H1735899   1.665   7.110   1.349 -1.9337 -1.8239  0.4466
  212PVA    H1835900   1.740   7.241   1.418  2.6370 -2.1820 -0.7176
  212PVA    C1035901   1.519   7.242   1.464 -0.9799  0.3560 -0.3303
  212PVA    H1935902   1.434   7.182   1.431 -0.9682 -0.1786  0.5775
  212PVA    H2035903   1.502   7.253   1.572 -3.8180  1.2559 -0.7861
  212PVA    C1135904   1.498   7.366   1.370 -1.3993  0.2268  0.3267
  212PVA    H2135905   1.593   7.420   1.361  0.1555 -2.1631  1.3808
  212PVA     O435906   1.468   7.305   1.245  0.0882  0.7868  0.6721
  212PVA    H2235907   1.441   7.376   1.185 -1.2561 -1.8028 -2.0664
  212PVA    C1235908   1.382   7.464   1.408  1.1818 -0.0564 -0.4425
  212PVA    H2335909   1.288   7.411   1.390 -0.3065  2.9434 -2.4440
  212PVA    H2435910   1.387   7.460   1.517 -1.4938 -0.5581 -0.2796
  212PVA    C1335911   1.390   7.630   1.387  0.1112  0.0749  0.1429
  212PVA    H2535912   1.399   7.680   1.484 -0.4859 -2.2392  1.4645
  212PVA    H2635913   1.488   7.659   1.347 -0.5375  2.8377  0.3135
  212PVA    C1435914   1.273   0.047   1.328  0.2514 -0.0009  0.4182
  212PVA    H2735915   1.288   0.041   1.219  2.9544 -0.1830  0.7452
  212PVA     O535916   1.151   7.680   1.367  0.0899  0.3298  0.2879
  212PVA    H2835917   1.167   7.644   1.456 -0.4711  3.6819  1.8812
  212PVA    C1535918   1.260   0.204   1.343 -0.5737 -0.4105  0.3637
  212PVA    H2935919   1.365   0.227   1.325 -0.6904 -1.9014 -2.8608
  212PVA    H3035920   1.246   0.234   1.448 -0.9705  1.5747 -0.2187
  212PVA    C1635921   1.151   0.293   1.260 -0.2688  1.0282  0.0384
  212PVA    H3135922   1.144   0.241   1.164  1.7304  1.7661 -0.5685
  212PVA    H3235923   1.053   0.275   1.306 -0.4645  0.4356 -0.6057
  212PVA    C1735924   1.188   0.442   1.221  0.3543 -0.1861  0.3395
  212PVA    H3335925   1.153   0.446   1.117 -0.1742  1.8015  0.5678
  212PVA     O635926   1.332   0.457   1.199  0.8743 -0.6332 -0.2677
  212PVA    H3435927   1.357   0.513   1.274  2.8432 -1.5327 -0.2041
  212PVA    C1835928   1.114   0.570   1.280 -0.1361  0.2059  0.5369
  212PVA    H3535929   1.025   0.598   1.223 -1.8137 -1.3969  2.2604
  212PVA    H3635930   1.067   0.540   1.374 -2.7697  0.7043 -0.5345
  212PVA    C1935931   1.188   0.701   1.314 -0.3658 -0.1327 -0.0396
  212PVA    H3735932   1.191   0.763   1.224 -0.4387 -1.4659 -0.9939
  212PVA    H3835933   1.291   0.677   1.343 -1.1135 -1.7212  1.5240
  212PVA    C2035934   1.135   0.793   1.442  1.1695  0.9171  0.8831
  212PVA    H3935935   1.175   0.748   1.534  1.4271 -1.7859 -0.4242
  212PVA     O735936   0.992   0.765   1.437 -0.6492  0.3204  0.2634
  212PVA    H4035937   0.948   0.796   1.356 -3.2522 -0.5711  1.2138
  212PVA    C2135938   1.157   0.954   1.421 -0.2668  0.0398 -0.4039
  212PVA    H4135939   1.258   0.959   1.378 -0.3404 -0.1687 -0.6012
  212PVA    H4235940   1.096   0.992   1.338 -4.2102 -1.6069  1.4664
  212PVA    C2235941   1.155   1.072   1.542 -1.2130 -1.0324 -0.2522
  212PVA    H4335942   1.148   1.167   1.488  0.7708 -0.0420  1.1489
  212PVA    H4435943   1.059   1.058   1.594 -1.7869 -2.0466 -1.5182
  212PVA    C2335944   1.285   1.107   1.653  1.3233  0.2567 -0.2996
  212PVA    H4535945   1.307   1.010   1.698 -0.0749 -1.2905 -2.6733
  212PVA     O835946   1.392   1.136   1.566 -1.1744 -0.4955 -0.3963
  212PVA    H4635947   1.463   1.181   1.616 -0.4930  1.0517 -2.5955
  212PVA    C2435948   1.282   1.234   1.763 -0.4584  0.4386 -0.3550
  212PVA    H4735949   1.297   1.330   1.712  1.5946  0.9004  1.0251
  212PVA    H4835950   1.188   1.242   1.819  0.3691  2.8169  0.8112
  212PVA    C2535951   1.385   1.215   1.878 -0.8484 -0.5120 -0.0551
  212PVA    H4935952   1.468   1.162   1.829 -0.0349  2.9521 -2.8251
  212PVA    H5035953   1.345   1.161   1.964  0.4878 -1.6671 -0.1035
  212PVA    C2635954   1.459   1.362   1.925  0.6155  0.6518  0.7187
  212PVA    H5135955   1.490   1.416   1.835  0.0353  0.1737  0.2202
  212PVA     O935956   1.359   1.433   1.993 -0.1958 -0.4694 -0.2393
  212PVA    H5235957   1.285   1.401   1.938 -1.2481  0.3891  0.6178
  212PVA    C2735958   1.583   1.350   2.027  0.9627  1.0764  0.4185
  212PVA    H5335959   1.619   1.252   1.991  0.7438  1.4770 -0.9328
  212PVA    H5435960   1.538   1.322   2.123 -3.3201 -1.4430 -2.0156
  212PVA    C2835961   1.705   1.461   2.061  0.2268 -0.3086 -0.5550
  212PVA    H5535962   1.669   1.546   2.120  0.7301 -0.0349 -0.6388
  212PVA    H5635963   1.742   1.518   1.975  0.7270  2.5699  1.4402
  212PVA    C2935964   1.852   1.412   2.125 -0.1259 -0.1811 -0.1320
  212PVA    H5735965   1.899   1.367   2.037 -4.1392 -3.6659 -0.7709
  212PVA    O1035966   1.826   1.292   2.197 -0.7413  0.4014 -0.6755
  212PVA    H5835967   1.886   1.281   2.272  3.0276 -2.7216 -3.6767
  212PVA    C3035968   1.958   1.513   2.206 -0.7462  0.6296 -0.2748
  212PVA    H5935969   1.918   1.549   2.301 -0.7839  0.0771 -0.0801
  212PVA    H6035970   1.964   1.598   2.136 -3.2797  0.1033 -1.2378
  212PVA    C3135971   2.114   1.468   2.237  0.1653  0.8196  0.4006
  212PVA    H6135972   2.165   1.506   2.147 -0.8445  1.5549  0.1119
  212PVA    H6235973   2.117   1.367   2.195 -0.0833  0.7988  0.4366
  212PVA    C3235974   2.198   1.478   2.371  0.3120 -0.1404  0.7126
  212PVA    H6335975   2.221   1.584   2.386 -0.2481 -0.0155  0.7209
  212PVA    O1135976   2.135   1.485   2.490  0.2484  0.4310  0.6232
  212PVA    H6435977   2.200   1.521   2.553 -0.2236  2.5792 -0.0502
  212PVA    C3335978   2.342   1.403   2.388 -0.2598 -0.7362  0.2191
  212PVA    H6535979   2.414   1.480   2.358 -2.8443  0.7413 -2.8760
  212PVA    H6635980   2.328   1.346   2.295 -0.2215 -1.6476  0.7655
  212PVA    C3435981   2.398   1.323   2.525 -0.0566 -1.0472 -0.1530
  212PVA    H6735982   2.396   1.409   2.594 -0.6699  0.7628 -2.2876
  212PVA    H6835983   2.314   1.274   2.576 -0.4080  1.7803  2.3390
  212PVA    C3535984   2.537   1.240   2.545 -0.3476  0.7884 -1.4057
  212PVA    H6935985   2.605   1.286   2.473 -1.2666  3.1807 -0.8483
  212PVA    O1235986   2.586   1.284   2.673 -0.4651  0.8974  0.5740
  212PVA    H7035987   2.551   1.225   2.741 -1.7061  2.2290  1.1363
  212PVA    C3635988   2.544   1.078   2.551  0.0600  0.6122  0.2446
  212PVA    H7135989   2.459   1.032   2.501  1.4537 -3.7690  1.4101
  212PVA    H7235990   2.540   1.047   2.656 -1.0443  1.8779  0.6016
  212PVA    C3735991   2.670   1.011   2.476  0.5807 -0.0753 -0.2185
  212PVA    H7335992   2.691   1.044   2.374 -1.6982  0.2642 -0.6232
  212PVA    H7435993   2.753   1.055   2.532  0.4139  1.2582 -0.9922
  212PVA    C3835994   2.715   0.860   2.513  0.4566  0.1405  0.2074
  212PVA    H7535995   2.726   0.847   2.621 -3.6011 -0.5370  0.7127
  212PVA    O1335996   2.608   0.769   2.477  0.1451  0.2478 -0.1468
  212PVA    H7635997   2.598   0.715   2.557  3.6696  4.4492  3.6490
  212PVA    C3935998   2.846   0.790   2.455  0.0328  0.5050 -0.2628
  212PVA    H7735999   2.894   0.863   2.389  0.4506 -0.4765 -1.0712
  212PVA    H7836000   2.804   0.729   2.374 -3.0631 -0.3308  1.7938
  212PVA    C4036001   2.924   0.693   2.546 -0.3429 -0.1232 -0.5122
  212PVA    H7936002   2.970   0.750   2.628 -0.2658 -3.0072  1.5873
  212PVA    H8036003   2.842   0.625   2.573 -0.4247 -0.4508 -1.5401
  212PVA    C4136004   3.020   0.603   2.460 -1.0637 -0.3846 -0.2435
  212PVA    H8136005   2.971   0.572   2.367 -2.7448 -0.0527  0.4850
  212PVA    O1436006   3.139   0.690   2.451 -0.2880 -0.3495  0.0150
  212PVA    H8236007   3.201   0.653   2.385 -1.1404 -1.5320 -0.1695
  212PVA    C4236008   3.063   0.477   2.561 -0.1409  0.8563 -0.5334
  212PVA    H8336009   2.986   0.438   2.630 -0.0568 -2.8943 -2.3242
  212PVA    H8436010   3.123   0.532   2.635  0.5696  0.8479 -1.1002
  212PVA    C4336011   3.167   0.362   2.506  0.5298 -0.0876  1.7297
  212PVA    H8536012   3.121   0.312   2.421  1.9132  2.1311 -0.4530
  212PVA    H8636013   3.257   0.406   2.462 -0.7059  1.1161  0.2569
  212PVA    C4436014   3.233   0.249   2.612  0.4842  0.8602  0.3149
  212PVA    H8736015   3.336   0.285   2.623  0.8750  1.6583 -4.0733
  212PVA    O1536016   3.158   0.266   2.728 -0.3002  0.5275 -0.5592
  212PVA    H8836017   3.196   0.347   2.768 -1.4961  1.9143 -2.0850
  212PVA    C4536018   3.252   0.093   2.587  1.2508 -0.6413 -0.2411
  212PVA    H8936019   3.185   0.029   2.527  1.4856 -2.2602  1.1626
  212PVA    H9036020   3.341   0.095   2.523  1.0485  1.0081 -0.5117
  212PVA    C4636021   3.278   7.677   2.717 -0.6269  0.7478 -0.6527
  212PVA    H9136022   3.227   0.038   2.802  0.8971 -2.6204  2.3242
  212PVA    H9236023   3.373   0.012   2.768 -3.0047  2.0159  3.7616
  212PVA    C4736024   3.244   7.520   2.716  0.0355 -0.2158 -0.8011
  212PVA    H9336025   3.175   7.514   2.802 -0.7708  3.1862 -1.0573
  212PVA    O1636026   3.169   7.491   2.592 -0.1214  0.4947  0.1302
  212PVA    H9436027   3.143   7.397   2.600  1.9185 -0.1489 -0.2025
  212PVA    C4836028   3.357   7.401   2.736 -0.1444  0.2398  0.3337
  212PVA    H9536029   3.449   7.456   2.713  0.1181 -1.1789 -2.3729
  212PVA    H9636030   3.363   7.385   2.845 -2.4906 -1.1547  0.3356
  212PVA    C4936031   3.350   7.248   2.690 -0.6958 -1.0301  0.3134
  212PVA    H9736032   3.347   7.236   2.581  0.4351 -2.3014  0.3953
  212PVA    H9836033   3.259   7.196   2.722  0.7352 -1.8414  3.4002
  212PVA    C5036034   3.455   7.142   2.743 -0.8847  0.0082 -0.1416
  212PVA    H9936035   3.521   7.200   2.810 -1.4466 -1.6522  1.9730
  212PVA    O1736036   3.398   7.047   2.847  0.1930 -0.4770  0.9860
  212PVA   H10036037   3.396   7.075   2.940 -0.7238 -0.5490  0.9938
  212PVA    C5136038   3.540   7.058   2.641 -0.3775  0.9441  0.5871
  212PVA   H10136039   3.610   7.137   2.612  0.2071  0.8227  1.6116
  212PVA   H10236040   3.493   7.056   2.542  0.6633  4.6590 -0.1330
  213PVA     C136041   2.852   6.428   1.849  0.6347  1.9932  0.8904
  213PVA     H136042   2.854   6.371   1.755 -0.1966  1.2735  1.2922
  213PVA     H236043   2.858   6.531   1.814  0.1577  1.3183 -1.3731
  213PVA     C236044   2.986   6.397   1.916  0.5471  0.2619  0.3788
  213PVA     H336045   2.955   6.357   2.014 -2.6773  0.2833 -0.5179
  213PVA     O136046   3.054   6.303   1.839 -0.5690  0.1827 -0.3191
  213PVA     H436047   2.994   6.236   1.804  0.6476  0.3532 -2.9977
  213PVA     C336048   3.067   6.523   1.948  0.1292  0.5416 -0.4219
  213PVA     H536049   2.993   6.603   1.966 -0.4900 -0.5635  2.4610
  213PVA     H636050   3.101   6.499   2.050 -0.9549  1.0358  0.0808
  213PVA     C436051   3.183   6.582   1.863 -0.7101 -0.3984  0.9625
  213PVA     H736052   3.245   6.495   1.837  0.0677  0.6674 -0.9849
  213PVA     H836053   3.142   6.598   1.762 -1.0382 -1.8164  0.8578
  213PVA     C536054   3.255   6.721   1.910 -0.1057 -0.4393 -0.8350
  213PVA     H936055   3.318   6.707   1.999 -5.9319 -3.6034  3.5583
  213PVA     O236056   3.150   6.799   1.964 -0.3783 -0.5652 -0.9280
  213PVA    H1036057   3.180   6.890   1.981  1.8580 -1.4286  0.1089
  213PVA     C636058   3.307   6.803   1.791  0.2104 -0.5725 -0.3633
  213PVA    H1136059   3.379   6.744   1.732  1.5427  0.3092  0.3537
  213PVA    H1236060   3.222   6.832   1.727 -0.1001 -0.4446  0.1078
  213PVA     C736061   3.383   6.930   1.826  0.9682 -0.2785 -1.2090
  213PVA    H1336062   3.429   6.909   1.923 -2.7932  2.5160  1.5171
  213PVA    H1436063   3.300   6.992   1.863  1.6975  0.7047 -1.1716
  213PVA     C836064   3.475   7.003   1.726  1.2489 -0.1810 -0.2729
  213PVA    H1536065   3.512   6.926   1.658  3.0723 -0.5574  1.0612
  213PVA     O336066   3.585   7.075   1.788  1.1032  0.6691  0.2212
  213PVA    H1636067   3.632   7.144   1.738 -0.3210  0.1280 -2.0245
  213PVA     C936068   3.388   7.110   1.653 -0.6250  0.2870 -1.4821
  213PVA    H1736069   3.387   7.176   1.742  1.6182 -0.3489 -0.9184
  213PVA    H1836070   3.279   7.105   1.649 -0.8524  0.4764  1.6736
  213PVA    C1036071   3.444   7.196   1.545  0.5266 -0.4636  0.0950
  213PVA    H1936072   3.521   7.240   1.609  0.3720 -0.5106  0.3136
  213PVA    H2036073   3.488   7.141   1.461  0.5259  1.5831 -1.3180
  213PVA    C1136074   3.349   7.312   1.479  0.0559  0.2997 -0.9991
  213PVA    H2136075   3.267   7.267   1.421 -0.8412 -1.3428  1.3735
  213PVA     O436076   3.301   7.381   1.585  1.6846 -0.3471 -0.5307
  213PVA    H2236077   3.209   7.371   1.555  2.9819 -1.2573 -4.7574
  213PVA    C1236078   3.416   7.402   1.379  0.0908  0.1598 -0.4428
  213PVA    H2336079   3.450   7.484   1.443 -3.9523  1.1427  0.7606
  213PVA    H2436080   3.503   7.348   1.342  0.3256 -1.2352  1.9519
  213PVA    C1336081   3.330   7.443   1.251  0.6603 -1.0232 -0.5833
  213PVA    H2536082   3.224   7.448   1.277  0.7694 -1.9726  0.0868
  213PVA    H2636083   3.351   7.371   1.171  0.5157  1.0024 -2.5486
  213PVA    C1436084   3.360   7.577   1.177  0.4009  0.3405 -0.6360
  213PVA    H2736085   3.467   7.602   1.183 -0.0336  2.3296 -0.4300
  213PVA     O536086   3.293   0.001   1.246  0.4905  0.4487  0.2046
  213PVA    H2836087   3.212   7.657   1.291 -1.7861  3.5486 -1.5588
  213PVA    C1536088   3.339   7.582   1.022  0.8057 -0.0923 -0.5422
  213PVA    H2936089   3.259   7.509   1.007  0.3091 -0.6900  3.6026
  213PVA    H3036090   3.432   7.538   0.984  0.4046  1.0222 -3.0040
  213PVA    C1636091   3.312   0.046   0.958 -0.4171  0.7212  0.5386
  213PVA    H3136092   3.210   0.075   0.984 -0.5082  0.7966  0.0987
  213PVA    H3236093   3.375   0.122   1.005 -0.6742  1.8961 -0.9648
  213PVA    C1736094   3.315   0.061   0.803  0.1078 -0.0471 -0.2427
  213PVA    H3336095   3.229   0.126   0.783  1.0676  0.7835 -1.8064
  213PVA     O636096   3.309   7.622   0.736 -0.8462 -0.2940 -0.2777
  213PVA    H3436097   3.372   7.559   0.775  1.3641  1.2685 -1.0907
  213PVA    C1836098   3.427   0.149   0.751 -0.8650 -0.7637 -0.8681
  213PVA    H3536099   3.436   0.245   0.804 -1.3077 -1.3858  0.3771
  213PVA    H3636100   3.528   0.109   0.767 -0.3719  0.9842  0.8199
  213PVA    C1936101   3.415   0.184   0.596 -1.3591 -0.2249  0.2601
  213PVA    H3736102   3.324   0.244   0.582 -2.2115 -1.4880  0.1949
  213PVA    H3836103   3.403   0.096   0.531 -4.6409  0.5235 -0.3220
  213PVA    C2036104   3.544   0.269   0.540 -0.3849  0.3814  0.2645
  213PVA    H3936105   3.629   0.252   0.608 -1.5132  0.7299  1.8347
  213PVA     O736106   3.578   0.199   0.423  0.5860 -0.2384  0.2481
  213PVA    H4036107   3.573   0.109   0.461 -0.6592  0.5425  2.0721
  213PVA    C2136108   3.521   0.425   0.495 -0.0461 -0.5809  0.7025
  213PVA    H4136109   3.454   0.480   0.563  1.8195 -0.0930  2.2466
  213PVA    H4236110   3.451   0.410   0.413 -1.2043 -1.8285  1.8557
  213PVA    C2236111   3.654   0.495   0.441 -0.7350 -0.3073  0.6753
  213PVA    H4336112   3.728   0.432   0.493 -0.2003  1.0718  1.6245
  213PVA    H4436113   3.671   0.457   0.339 -2.5642  1.0706 -0.1898
  213PVA    C2336114   3.698   0.644   0.469  0.9491 -0.7914  0.5334
  213PVA    H4536115   3.627   0.705   0.411  0.8165  1.8976  3.2672
  213PVA     O836116   3.821   0.680   0.423 -0.4193  0.9513  0.3979
  213PVA    H4636117   3.862   0.602   0.384 -1.8589 -0.9910  2.4762
  213PVA    C2436118   3.682   0.709   0.610  0.0243 -0.6776  0.4534
  213PVA    H4736119   3.589   0.767   0.611  2.4827  3.7492  2.3843
  213PVA    H4836120   3.672   0.623   0.678  0.3970 -0.3113  0.9862
  213PVA    C2536121   3.773   0.814   0.662  0.1504  0.7621  0.3418
  213PVA    H4936122   3.730   0.907   0.622  1.6632  1.6414  0.6528
  213PVA    H5036123   3.875   0.797   0.626 -0.9003 -3.4230 -1.1484
  213PVA    C2636124   3.790   0.834   0.822  0.1436  0.5605 -0.7289
  213PVA    H5136125   3.852   0.922   0.841  2.1737 -0.2294 -3.1490
  213PVA     O936126   3.664   0.867   0.880  1.3225  0.1517 -0.1102
  213PVA    H5236127   3.644   0.957   0.849 -1.1147 -0.1301  0.4695
  213PVA    C2736128   3.874   0.735   0.900 -0.2277  0.5096 -0.0709
  213PVA    H5336129   3.979   0.742   0.869 -0.0671  1.8135  0.6866
  213PVA    H5436130   3.842   0.632   0.882  3.6019 -0.9156  0.4195
  213PVA    C2836131   3.890   0.752   1.054  0.6158 -0.4507 -0.1042
  213PVA    H5536132   3.896   0.859   1.079 -0.0239 -0.7834  1.6630
  213PVA    H5636133   3.810   0.702   1.111  0.5749  1.6711  1.8307
  213PVA    C2936134   4.023   0.693   1.107 -0.5806  0.5974 -0.4092
  213PVA    H5736135   4.098   0.715   1.030 -3.2824  1.1340 -3.0586
  213PVA    O1036136   4.052   0.756   1.233  0.6359 -0.2435 -0.0406
  213PVA    H5836137   4.010   0.844   1.239  1.3418  0.0180  1.5420
  213PVA    C3036138   4.050   0.538   1.136  0.3699 -0.3684 -0.2992
  213PVA    H5936139   4.024   0.513   1.240 -4.1637 -0.0747 -1.1854
  213PVA    H6036140   3.993   0.473   1.068  0.5528  0.1028 -0.9083
  213PVA    C3136141   4.198   0.498   1.128 -0.8341  0.5938  0.1337
  213PVA    H6136142   4.244   0.506   1.227 -2.3494  1.9410  0.7736
  213PVA    H6236143   4.249   0.584   1.082  0.1971  0.5287  1.1198
  213PVA    C3236144   4.235   0.364   1.044 -0.8842  0.3008  0.5522
  213PVA    H6336145   4.284   0.287   1.105 -2.3881 -3.8228 -2.9277
  213PVA    O1136146   4.118   0.299   0.979 -1.0334 -0.2052 -0.5809
  213PVA    H6436147   4.057   0.260   1.044  2.2296 -1.0772  2.2781
  213PVA    C3336148   4.334   0.406   0.928  0.8114  0.5898  0.3921
  213PVA    H6536149   4.400   0.486   0.965  1.3018  0.9521 -1.2130
  213PVA    H6636150   4.277   0.445   0.843 -0.1782 -1.4025  0.0785
  213PVA    C3436151   4.410   0.289   0.864 -0.4345 -0.0812  0.1289
  213PVA    H6736152   4.422   0.202   0.930 -1.9064 -0.7112 -0.3842
  213PVA    H6836153   4.348   0.227   0.797  2.6850 -3.8658  0.3962
  213PVA    C3536154   4.544   0.344   0.792  0.0233 -0.0624  0.0469
  213PVA    H6936155   4.634   0.347   0.855  3.0089  0.2720 -3.8907
  213PVA    O1236156   4.530   0.481   0.757 -0.3553 -0.4212  0.0078
  213PVA    H7036157   4.597   0.506   0.691 -2.2604  1.1878 -1.4541
  213PVA    C3636158   4.579   0.266   0.661  0.5768  0.0760  0.1474
  213PVA    H7136159   4.494   0.252   0.593  2.5760  1.0759 -2.7145
  213PVA    H7236160   4.609   0.166   0.694  1.5290  0.0037 -0.9040
  213PVA    C3736161   4.700   0.309   0.568 -0.3464 -1.2377 -0.0119
  213PVA    H7336162   4.790   0.328   0.628 -0.3612 -3.7274  0.9455
  213PVA    H7436163   4.675   0.409   0.531 -3.5679 -0.9286  2.5518
  213PVA    C3836164   4.755   0.207   0.461 -1.5251  0.0818  0.0826
  213PVA    H7536165   4.865   0.210   0.459 -1.5448  2.8739 -1.4467
  213PVA    O1336166   4.707   0.263   0.345  0.5721  0.0637  0.9605
  213PVA    H7636167   4.611   0.277   0.356  0.1607 -1.3115 -0.4198
  213PVA    C3936168   4.710   0.058   0.464  1.3668 -0.2713 -0.7426
  213PVA    H7736169   4.601   0.054   0.474  1.4622 -1.3190  0.0431
  213PVA    H7836170   4.746   0.023   0.562 -0.4655  4.0467  1.7698
  213PVA    C4036171   4.755   7.644   0.353  0.4750 -0.2952 -0.4191
  213PVA    H7936172   4.710   0.007   0.265  0.8622  1.5716  0.3464
  213PVA    H8036173   4.864   7.653   0.361  0.4016 -1.0053  4.8677
  213PVA    C4136174   4.705   7.491   0.361  0.3165  1.1778  0.0737
  213PVA    H8136175   4.676   7.461   0.259  1.4199 -0.8316  0.2973
  213PVA    O1436176   4.602   7.474   0.452 -0.0426 -0.2464 -1.0165
  213PVA    H8236177   4.605   7.395   0.508  0.6501  0.7063  0.3482
  213PVA    C4236178   4.818   7.404   0.429  0.9403  0.7192 -1.2019
  213PVA    H8336179   4.839   7.440   0.531 -2.0727  2.5767 -1.1071
  213PVA    H8436180   4.900   7.413   0.357 -0.7977  3.9890 -2.9510
  213PVA    C4336181   4.776   7.262   0.449  0.2262  0.9736 -0.6554
  213PVA    H8536182   4.748   7.226   0.349  1.2808  0.1536 -0.6720
  213PVA    H8636183   4.684   7.251   0.507 -0.1169 -3.9792 -1.6948
  213PVA    C4436184   4.894   7.172   0.504  1.1242 -1.8272  1.1455
  213PVA    H8736185   4.920   7.192   0.609  4.4253 -0.8879  0.2669
  213PVA    O1536186   5.004   7.202   0.411  0.6828 -0.2240 -1.0527
  213PVA    H8836187   4.984   7.177   0.319 -3.4699  1.2782 -0.7688
  213PVA    C4536188   4.851   7.021   0.509 -0.9434  0.5007  0.2425
  213PVA    H8936189   4.804   6.995   0.414  1.7134  0.7168 -1.2140
  213PVA    H9036190   4.763   7.029   0.575  0.2103  6.2506  1.6792
  213PVA    C4636191   4.946   6.904   0.569 -0.1437 -0.1321  0.2100
  213PVA    H9136192   5.013   6.952   0.641  2.4368 -1.3204 -1.2516
  213PVA    H9236193   4.889   6.833   0.630  1.7276  0.9123  3.3912
  213PVA    C4736194   5.056   6.865   0.463 -0.4103  2.4555  0.3031
  213PVA    H9336195   5.010   6.900   0.370  1.3918 -3.9221 -3.5734
  213PVA    O1636196   5.197   6.921   0.481  0.3204  0.6638 -0.3795
  213PVA    H9436197   5.181   7.017   0.480 -0.1503  0.6405 -2.9158
  213PVA    C4836198   5.075   6.708   0.477  0.4148 -1.0507  0.2859
  213PVA    H9536199   5.048   6.667   0.576 -0.7488 -0.3531  0.2716
  213PVA    H9636200   4.989   6.675   0.418 -0.7963 -4.1624  3.4098
  213PVA    C4936201   5.199   6.641   0.423  0.6497  0.0113  0.0718
  213PVA    H9736202   5.277   6.672   0.493 -2.4574 -0.3950  4.0503
  213PVA    H9836203   5.232   6.670   0.322  3.8171  1.9580  1.5040
  213PVA    C5036204   5.209   6.480   0.408 -0.7969 -0.4344 -1.4331
  213PVA    H9936205   5.149   6.457   0.319  1.1580 -1.5895 -2.5183
  213PVA    O1736206   5.157   6.416   0.519  0.0440 -0.3922 -0.5367
  213PVA   H10036207   5.177   6.472   0.597 -0.6664  1.6687 -1.7576
  213PVA    C5136208   5.341   6.409   0.369  0.3599 -0.0256 -0.2761
  213PVA   H10136209   5.346   6.387   0.261  1.2505  2.6394 -0.8721
  213PVA   H10236210   5.351   6.310   0.416  4.3976  0.5473  0.4387
  214PVA     C136211   3.460   5.810   2.392 -0.2179 -0.1255  0.5628
  214PVA     H136212   3.359   5.844   2.416  0.3230  5.3522 -3.0025
  214PVA     H236213   3.474   5.723   2.458  0.8347 -2.7345 -2.7771
  214PVA     C236214   3.471   5.753   2.247  1.8268 -0.2889  0.9215
  214PVA     H336215   3.511   5.832   2.181  3.5915 -0.4401  1.7707
  214PVA     O136216   3.563   5.655   2.258 -0.7906  0.9415 -0.6820
  214PVA     H436217   3.517   5.578   2.297  0.5319  0.0170 -0.9034
  214PVA     C336218   3.332   5.704   2.194  1.4562 -0.8392 -0.7167
  214PVA     H536219   3.263   5.788   2.183  3.7479  0.8861 -3.2573
  214PVA     H636220   3.282   5.640   2.268  0.2251 -0.1845 -0.9590
  214PVA     C436221   3.325   5.639   2.056  0.0543  0.5745 -0.4335
  214PVA     H736222   3.408   5.689   2.004  2.4728 -0.0749  2.4946
  214PVA     H836223   3.366   5.537   2.060 -4.1301 -1.2795  1.2869
  214PVA     C536224   3.183   5.638   1.983 -0.5936 -0.0827  1.1693
  214PVA     H936225   3.170   5.739   1.942 -1.3907 -0.6093  0.0708
  214PVA     O236226   3.070   5.632   2.065 -0.0552  0.8154 -0.2699
  214PVA    H1036227   2.992   5.633   2.006 -0.2835 -3.7180 -0.4018
  214PVA     C636228   3.172   5.547   1.853 -0.4712  0.0197  0.2783
  214PVA    H1136229   3.267   5.556   1.797  1.5786  0.7131  3.5794
  214PVA    H1236230   3.175   5.449   1.902 -3.4680 -0.4081 -0.2290
  214PVA     C736231   3.043   5.573   1.772 -0.0997  0.8416 -0.9381
  214PVA    H1336232   3.050   5.667   1.717 -0.3646 -0.9000 -4.1412
  214PVA    H1436233   2.956   5.578   1.838  1.2015  4.1268  0.7767
  214PVA     C836234   2.991   5.471   1.665  0.2277 -0.5561  0.5510
  214PVA    H1536235   2.969   5.391   1.737 -3.5931 -1.2722 -1.1626
  214PVA     O336236   3.090   5.418   1.578 -0.2294  0.8209 -0.1189
  214PVA    H1636237   3.141   5.490   1.538  0.5615 -0.0314 -0.6753
  214PVA     C936238   2.861   5.512   1.598 -0.8587  0.2209  0.6251
  214PVA    H1736239   2.826   5.598   1.657 -0.2916  2.0021 -1.5241
  214PVA    H1836240   2.886   5.569   1.508 -1.5123  1.2024  1.0462
  214PVA    C1036241   2.756   5.396   1.575  0.2911 -0.0953  0.3875
  214PVA    H1936242   2.719   5.394   1.678  1.7003 -1.1521  0.9046
  214PVA    H2036243   2.814   5.306   1.552 -2.5800 -1.6768 -1.1536
  214PVA    C1136244   2.640   5.402   1.467  0.1585 -0.5218 -0.8055
  214PVA    H2136245   2.604   5.506   1.463  1.9135  0.3667  2.7187
  214PVA     O436246   2.703   5.375   1.347 -0.2315 -0.3047  0.0010
  214PVA    H2236247   2.796   5.380   1.375  1.4110  0.3865 -4.7077
  214PVA    C1236248   2.513   5.325   1.494  0.7734  0.7957 -0.0378
  214PVA    H2336249   2.554   5.226   1.519 -1.3861 -0.1374  0.0099
  214PVA    H2436250   2.467   5.358   1.588 -2.4307 -1.0064 -0.8220
  214PVA    C1336251   2.408   5.303   1.379 -0.2147 -0.2887 -0.2226
  214PVA    H2536252   2.411   5.212   1.318 -4.4166 -2.4414  2.3199
  214PVA    H2636253   2.429   5.389   1.313 -0.9115 -0.3644 -0.5504
  214PVA    C1436254   2.256   5.317   1.426  0.7768  0.9609 -0.3761
  214PVA    H2736255   2.255   5.274   1.527 -0.1534  4.1015  1.0671
  214PVA     O536256   2.214   5.450   1.438 -0.1023  0.5663 -0.0802
  214PVA    H2836257   2.137   5.455   1.497  1.3118  3.3067  1.7782
  214PVA    C1536258   2.157   5.240   1.311 -0.9959  0.4150 -1.0276
  214PVA    H2936259   2.205   5.143   1.328 -2.0955  0.1068  0.4755
  214PVA    H3036260   2.194   5.299   1.226  0.4627  3.9932  1.7903
  214PVA    C1636261   1.998   5.219   1.327 -0.6424  0.2866 -0.9014
  214PVA    H3136262   1.952   5.300   1.385 -2.9846 -0.5337 -1.4905
  214PVA    H3236263   1.978   5.139   1.399  0.4301  0.2086 -0.6755
  214PVA    C1736264   1.923   5.208   1.185 -1.4447  0.2160 -0.0363
  214PVA    H3336265   1.976   5.131   1.127 -3.7001 -1.0275 -0.5945
  214PVA     O636266   1.930   5.335   1.111 -0.6380 -0.1219 -0.1320
  214PVA    H3436267   1.956   5.391   1.186 -3.0383  1.8509 -0.6539
  214PVA    C1836268   1.782   5.150   1.175  0.1548  0.8942  0.4584
  214PVA    H3536269   1.785   5.041   1.189  4.9841  0.8983  0.9663
  214PVA    H3636270   1.721   5.185   1.259 -0.2486 -1.6236  1.3083
  214PVA    C1936271   1.718   5.161   1.032 -0.0849 -0.5732  0.8669
  214PVA    H3736272   1.812   5.141   0.980  0.6159  2.7293  0.6432
  214PVA    H3836273   1.690   5.266   1.015  0.3339 -0.6042 -0.0956
  214PVA    C2036274   1.610   5.080   0.962  0.5025 -0.3931  0.1992
  214PVA    H3936275   1.528   5.071   1.035  0.9238 -1.5032  0.5598
  214PVA     O736276   1.653   4.957   0.921  0.8098  0.8856  0.5805
  214PVA    H4036277   1.736   4.978   0.874  1.9588 -0.0424  2.1132
  214PVA    C2136278   1.540   5.148   0.836  0.1793  1.4126  1.5313
  214PVA    H4136279   1.606   5.131   0.751 -5.0250  0.7800 -2.9250
  214PVA    H4236280   1.552   5.254   0.860  2.2388  0.8904  3.0850
  214PVA    C2236281   1.397   5.104   0.786  0.2724  0.5781 -0.3181
  214PVA    H4336282   1.370   5.000   0.807 -4.0816  0.9386 -2.9777
  214PVA    H4436283   1.328   5.165   0.844  0.3379  0.0331  0.3412
  214PVA    C2336284   1.339   5.149   0.657  0.6852 -0.1678  0.3545
  214PVA    H4536285   1.350   5.258   0.650  0.8863 -0.2534 -1.0598
  214PVA     O836286   1.422   5.089   0.556 -0.2260  0.1076  0.0421
  214PVA    H4636287   1.437   4.995   0.579  5.4640  0.3777 -1.0423
  214PVA    C2436288   1.181   5.131   0.634  0.0999  0.2647 -0.3898
  214PVA    H4736289   1.166   5.032   0.588 -5.5354  0.6823 -0.0988
  214PVA    H4836290   1.137   5.119   0.733  0.1884 -0.3380 -0.4183
  214PVA    C2536291   1.101   5.251   0.565  0.2213  0.4342  0.1480
  214PVA    H4936292   1.142   5.276   0.466 -0.7891  2.5083  0.2074
  214PVA    H5036293   1.123   5.348   0.610 -1.5777  2.7371 -3.4831
  214PVA    C2636294   0.946   5.239   0.563 -0.2343  0.3948  0.5109
  214PVA    H5136295   0.921   5.196   0.660 -0.8468  1.0956  0.6686
  214PVA     O936296   0.904   5.142   0.466  0.5746  0.3608 -0.3424
  214PVA    H5236297   0.955   5.169   0.387  0.1225  2.5027  0.0224
  214PVA    C2736298   0.835   5.358   0.568  0.6391  0.3953  0.1661
  214PVA    H5336299   0.874   5.427   0.492  3.4225  0.9609  1.9823
  214PVA    H5436300   0.852   5.411   0.662  0.0149  3.5082 -1.3414
  214PVA    C2836301   0.690   5.321   0.532  0.3110  0.5821  0.3326
  214PVA    H5536302   0.680   5.329   0.423  0.2193  2.8680  0.4507
  214PVA    H5636303   0.658   5.217   0.540 -3.1207  1.4003 -0.9396
  214PVA    C2936304   0.576   5.408   0.599 -0.1951  0.4073  0.8559
  214PVA    H5736305   0.584   5.396   0.708  4.0080 -0.2561  0.6434
  214PVA    O1036306   0.591   5.551   0.576  1.1563 -0.1536 -0.2976
  214PVA    H5836307   0.515   5.590   0.529 -1.3063 -5.5486 -1.6660
  214PVA    C3036308   0.427   5.379   0.556  0.5289 -1.2717 -0.3078
  214PVA    H5936309   0.406   5.279   0.596 -0.8148 -0.7483  0.3377
  214PVA    H6036310   0.414   5.382   0.447  0.1292  1.6850 -0.2393
  214PVA    C3136311   0.307   5.472   0.617 -0.6232 -0.4261  0.1193
  214PVA    H6136312   0.337   5.494   0.720  1.7831  2.1822 -1.0070
  214PVA    H6236313   0.313   5.573   0.577  1.2139  1.0411  3.6321
  214PVA    C3236314   0.162   5.418   0.595  0.0655 -0.4750 -1.0220
  214PVA    H6336315   0.127   5.449   0.496 -2.7328  2.2849  0.6581
  214PVA    O1136316   0.163   5.276   0.596 -0.1948 -1.5733  0.0815
  214PVA    H6436317   0.101   5.239   0.661 -0.3511 -2.2642 -0.4565
  214PVA    C3336318   0.052   5.463   0.702 -0.3543  0.8484 -0.6418
  214PVA    H6536319   0.079   5.561   0.742  0.5601  0.2006  0.4002
  214PVA    H6636320   0.049   5.404   0.795  1.3610  0.0356 -1.0642
  214PVA    C3436321   7.663   5.467   0.660 -0.4264 -0.2089  0.6571
  214PVA    H6736322   7.637   5.370   0.618 -1.8892 -1.0596  3.3097
  214PVA    H6836323   7.657   5.536   0.575  0.8603 -2.1564 -1.1301
  214PVA    C3536324   7.552   5.483   0.764 -0.2656 -0.3105 -0.3688
  214PVA    H6936325   7.555   5.384   0.812 -1.3236  1.4456  3.7822
  214PVA    O1236326   7.590   5.574   0.868 -0.9753  0.5471 -0.2070
  214PVA    H7036327   7.591   5.660   0.823  3.7561  1.4054  0.9534
  214PVA    C3636328   7.408   5.501   0.726  0.9163 -1.1500  0.6994
  214PVA    H7136329   7.389   5.497   0.618 -4.3948  0.0449  1.3102
  214PVA    H7236330   7.355   5.411   0.760 -0.8646 -1.9367 -3.5143
  214PVA    C3736331   7.327   5.630   0.785  1.1233  0.1066  0.4417
  214PVA    H7336332   7.344   5.631   0.894  0.7938  2.5978  0.5365
  214PVA    H7436333   7.381   5.723   0.762  2.2989  0.1084  2.8106
  214PVA    C3836334   7.173   5.641   0.764  0.1760 -0.4650  0.8747
  214PVA    H7536335   7.134   5.730   0.816  1.3251  0.5499  0.0361
  214PVA    O1336336   7.099   5.530   0.811 -0.3838 -0.0871  0.5719
  214PVA    H7636337   7.006   5.552   0.830 -0.9053 -1.6121  0.0078
  214PVA    C3936338   7.115   5.696   0.626  0.0392 -0.5793  0.3605
  214PVA    H7736339   7.091   5.615   0.557 -4.7577 -1.7969  3.0228
  214PVA    H7836340   7.187   5.766   0.582  2.9071 -2.7125  1.3449
  214PVA    C4036341   6.975   5.750   0.619  0.2718  0.0076  0.5120
  214PVA    H7936342   6.916   5.698   0.695 -1.5588  1.2499  0.0034
  214PVA    H8036343   6.957   5.847   0.668 -1.2007  0.3817 -0.6837
  214PVA    C4136344   6.896   5.739   0.484  0.1128 -0.2642 -0.3402
  214PVA    H8136345   6.963   5.739   0.398 -0.4927 -1.9849 -0.8547
  214PVA    O1436346   6.830   5.620   0.487  0.1802  0.5991  0.4317
  214PVA    H8236347   6.813   5.611   0.582 -0.8711  1.6298  0.3650
  214PVA    C4236348   6.786   5.844   0.450  0.4053 -0.1187  0.5778
  214PVA    H8336349   6.716   5.834   0.534  1.1175 -1.6001  1.0303
  214PVA    H8436350   6.828   5.944   0.466  0.4026 -0.0050 -0.0979
  214PVA    C4336351   6.711   5.850   0.311  1.5887 -0.2114  0.8053
  214PVA    H8536352   6.641   5.766   0.298 -0.4695  1.2261  2.0162
  214PVA    H8636353   6.774   5.827   0.225  1.0997  0.6672  0.2047
  214PVA    C4436354   6.629   5.985   0.269 -0.4333  0.1968  1.1647
  214PVA    H8736355   6.666   5.997   0.166 -1.4058 -0.3573  0.7307
  214PVA    O1536356   6.654   6.105   0.327  0.1894 -0.3272  0.2728
  214PVA    H8836357   6.661   6.094   0.423 -1.7451  1.8041  0.7384
  214PVA    C4536358   6.473   5.964   0.273 -0.8656 -0.3508  0.7621
  214PVA    H8936359   6.442   5.930   0.372 -1.6149 -0.2361  0.5727
  214PVA    H9036360   6.456   5.875   0.212 -0.8308  0.5749 -0.6722
  214PVA    C4636361   6.384   6.077   0.213  0.1309  0.1700  0.5764
  214PVA    H9136362   6.296   6.037   0.160 -0.6377  1.8285  0.5279
  214PVA    H9236363   6.446   6.113   0.130 -0.9117  0.0996 -0.2563
  214PVA    C4736364   6.342   6.187   0.312  0.9793 -0.1996  1.4018
  214PVA    H9336365   6.319   6.133   0.405  2.0118  2.1887  3.1246
  214PVA    O1636366   6.440   6.268   0.364 -0.3160 -1.6343  0.5225
  214PVA    H9436367   6.486   6.316   0.293  0.7668 -3.5850 -0.1956
  214PVA    C4836368   6.223   6.273   0.257  0.3642  0.0036  0.5295
  214PVA    H9536369   6.283   6.339   0.193  1.5025 -1.4972 -0.0007
  214PVA    H9636370   6.166   6.218   0.182  2.2898 -0.6073 -0.5458
  214PVA    C4936371   6.125   6.341   0.360 -0.4360 -0.3787 -0.4029
  214PVA    H9736372   6.195   6.406   0.415  0.0821 -1.3150  0.0766
  214PVA    H9836373   6.098   6.274   0.442 -1.8401 -2.0861 -2.1690
  214PVA    C5036374   6.017   6.440   0.315 -0.8169  0.5119 -0.1832
  214PVA    H9936375   6.046   6.536   0.358  0.2404 -0.0252  0.3387
  214PVA    O1736376   5.999   6.444   0.171  0.5687 -0.5883 -0.5266
  214PVA   H10036377   6.085   6.474   0.137 -0.3812  1.3744 -1.3902
  214PVA    C5136378   5.874   6.402   0.365 -0.0964 -0.2302  0.3446
  214PVA   H10136379   5.866   6.293   0.353 -0.6299 -0.1808  0.2506
  214PVA   H10236380   5.877   6.428   0.471 -0.0823  1.4928 -0.0631
  215PVA     C136381   3.935   5.952   2.571  0.3695  0.2495 -0.0282
  215PVA     H136382   3.904   5.984   2.672 -0.6924 -2.1893  0.4967
  215PVA     H236383   4.010   6.018   2.527  0.3324 -0.1076 -0.6416
  215PVA     C236384   3.989   5.807   2.597 -0.0074 -0.7661  0.1045
  215PVA     H336385   3.902   5.740   2.592  0.1708 -0.9119 -1.6803
  215PVA     O136386   4.047   5.798   2.727 -0.0149 -0.3719  0.1425
  215PVA     H436387   4.108   5.722   2.731  0.6173  0.1735  1.7505
  215PVA     C336388   4.073   5.744   2.486 -0.1761  0.0623  0.3637
  215PVA     H536389   4.173   5.790   2.494 -0.8006  1.1944  2.2819
  215PVA     H636390   4.046   5.771   2.383  0.7447 -3.1106 -0.8201
  215PVA     C436391   4.081   5.590   2.503  0.6020 -0.7546 -0.2733
  215PVA     H736392   4.018   5.552   2.585 -0.7833 -0.0904 -1.0085
  215PVA     H836393   4.035   5.542   2.416  0.7749  0.9175 -1.3316
  215PVA     C536394   4.221   5.515   2.503 -0.3831  0.0467  1.3564
  215PVA     H936395   4.293   5.547   2.427  0.7595 -1.9056  1.5543
  215PVA     O236396   4.193   5.389   2.444 -0.3085  0.4326  0.6804
  215PVA    H1036397   4.192   5.399   2.347  1.2882  1.1505  0.7076
  215PVA     C636398   4.296   5.504   2.642  0.2817 -0.0099  0.8302
  215PVA    H1136399   4.212   5.498   2.712 -0.2861  0.9723  0.2598
  215PVA    H1236400   4.351   5.411   2.661  2.9292  1.3617  0.3574
  215PVA     C736401   4.390   5.623   2.667  0.3671 -0.6156 -0.3363
  215PVA    H1336402   4.390   5.608   2.776  1.5155 -2.6190 -0.5643
  215PVA    H1436403   4.354   5.721   2.633  1.6993  0.0964  0.2198
  215PVA     C836404   4.540   5.607   2.617 -0.0391 -0.7967 -1.1320
  215PVA    H1536405   4.566   5.503   2.595  4.9096 -0.5290  1.9573
  215PVA     O336406   4.561   5.695   2.501 -0.1726  1.2959  0.5432
  215PVA    H1636407   4.627   5.650   2.444 -2.3056 -0.5534 -0.6132
  215PVA     C936408   4.651   5.626   2.722 -1.6652  0.8409  0.0588
  215PVA    H1736409   4.727   5.550   2.703 -1.8055  0.1332  2.1418
  215PVA    H1836410   4.603   5.604   2.818  1.1553 -1.4746  1.0558
  215PVA    C1036411   4.704   5.779   2.728  0.6410 -0.6706 -0.0686
  215PVA    H1936412   4.739   5.809   2.628 -0.0084 -1.2147 -0.4655
  215PVA    H2036413   4.615   5.842   2.736 -1.7133 -3.0351 -4.2072
  215PVA    C1136414   4.809   5.805   2.841  0.2895 -1.2414  1.4005
  215PVA    H2136415   4.799   5.735   2.925  0.9253  1.3586  3.7997
  215PVA     O436416   4.783   5.939   2.899 -0.1341  0.0036 -0.3121
  215PVA    H2236417   4.848   5.974   2.962  1.1927  1.2848 -2.2491
  215PVA    C1236418   4.958   5.799   2.787  0.5278 -0.8166 -0.1226
  215PVA    H2336419   4.981   5.722   2.713 -1.1853 -3.2376  1.7262
  215PVA    H2436420   4.958   5.900   2.743  4.6778 -1.3040 -1.7161
  215PVA    C1336421   5.077   5.800   2.888  0.3073  0.3839  0.0292
  215PVA    H2536422   5.038   5.734   2.966  0.1242 -2.4003 -2.2379
  215PVA    H2636423   5.066   5.892   2.947 -0.6112  0.6756 -0.5745
  215PVA    C1436424   5.213   5.759   2.839  0.6230  0.7277  1.2935
  215PVA    H2736425   5.270   5.845   2.801 -1.0609  1.1283 -0.4674
  215PVA     O536426   5.206   5.664   2.747 -0.2329  0.4712  0.3858
  215PVA    H2836427   5.290   5.662   2.699  0.6350 -4.4321  1.5420
  215PVA    C1536428   5.288   5.689   2.954  0.8877  0.4968 -0.0283
  215PVA    H2936429   5.231   5.603   2.990 -2.5170  2.2022 -0.9067
  215PVA    H3036430   5.294   5.747   3.047  3.9565 -0.9493  0.8011
  215PVA    C1636431   5.426   5.641   2.913  0.0048 -0.0273  0.4752
  215PVA    H3136432   5.431   5.591   2.816  2.4678  0.8311  0.0882
  215PVA    H3236433   5.493   5.728   2.909  4.2214 -3.0037 -1.0476
  215PVA    C1736434   5.502   5.562   3.016  0.4636 -0.3038  0.6722
  215PVA    H3336435   5.480   5.455   3.008  1.7176 -0.7526  2.5475
  215PVA     O636436   5.478   5.618   3.141  0.2649  0.6068 -0.0718
  215PVA    H3436437   5.422   5.554   3.188  0.2227  0.4076 -0.3884
  215PVA    C1836438   5.653   5.564   2.982 -0.0493  0.4338 -0.0707
  215PVA    H3536439   5.679   5.565   2.876  3.1565  1.5877  0.6077
  215PVA    H3636440   5.693   5.664   3.005 -0.9051  0.0878  3.7322
  215PVA    C1936441   5.737   5.461   3.069 -0.0575  0.7161 -0.0566
  215PVA    H3736442   5.686   5.364   3.060  2.9335 -1.2423  2.1203
  215PVA    H3836443   5.736   5.504   3.170  2.1248  1.3548 -0.2516
  215PVA    C2036444   5.889   5.428   3.017 -0.2355 -0.6444 -0.0688
  215PVA    H3936445   5.906   5.526   2.972 -3.6876  0.7901  1.4141
  215PVA     O736446   5.981   5.417   3.121 -0.0983  0.3276 -0.5251
  215PVA    H4036447   5.913   5.419   3.191 -1.9608 -4.2285 -1.8451
  215PVA    C2136448   5.880   5.305   2.913 -0.2716 -0.3227 -0.8460
  215PVA    H4136449   5.915   5.215   2.966  2.3121  1.5725  0.9141
  215PVA    H4236450   5.773   5.281   2.902 -1.2680  1.8901  2.3642
  215PVA    C2236451   5.952   5.315   2.779 -0.4395 -0.4135 -0.5042
  215PVA    H4336452   5.934   5.223   2.722 -0.9716 -0.6837  0.0853
  215PVA    H4436453   6.058   5.327   2.805 -1.7334  1.8973  5.2520
  215PVA    C2336454   5.933   5.436   2.693  0.2561 -0.2149  0.0603
  215PVA    H4536455   5.980   5.521   2.744  0.9277 -1.4851  1.6480
  215PVA     O836456   5.788   5.441   2.666 -0.2465  0.4820 -1.2152
  215PVA    H4636457   5.756   5.530   2.643 -1.4524 -0.1031 -1.8773
  215PVA    C2436458   6.021   5.454   2.574 -0.6973  0.5804 -0.0568
  215PVA    H4736459   5.980   5.543   2.526 -0.8079  0.0827 -0.9129
  215PVA    H4836460   5.991   5.377   2.501  0.3034 -0.1987  0.3349
  215PVA    C2536461   6.171   5.466   2.603 -0.8971  0.1016  0.1426
  215PVA    H4936462   6.185   5.536   2.686  0.1277  0.7669 -0.5648
  215PVA    H5036463   6.220   5.370   2.622 -1.3121 -0.7277 -2.5154
  215PVA    C2636464   6.262   5.514   2.486 -0.6370 -2.0766  0.1543
  215PVA    H5136465   6.247   5.458   2.393 -1.9637 -1.1284 -0.2359
  215PVA     O936466   6.250   5.656   2.473 -0.9921 -0.0089  0.3616
  215PVA    H5236467   6.281   5.678   2.563  3.4124 -1.2262 -0.6358
  215PVA    C2736468   6.417   5.508   2.514  0.3120  1.0330 -0.2555
  215PVA    H5336469   6.433   5.417   2.572 -1.2830 -0.6157 -2.2189
  215PVA    H5436470   6.443   5.591   2.581 -2.7027  0.9476  1.2217
  215PVA    C2836471   6.514   5.485   2.399 -0.0628  1.4122  0.4264
  215PVA    H5536472   6.498   5.396   2.337  3.5633  1.3391 -0.6703
  215PVA    H5636473   6.613   5.464   2.442 -0.6091  0.6828  1.3647
  215PVA    C2936474   6.558   5.603   2.309  0.5644 -0.4268 -1.7479
  215PVA    H5736475   6.639   5.577   2.239  2.7950 -2.4259  1.2963
  215PVA    O1036476   6.433   5.644   2.244  1.0645  1.2045 -0.3735
  215PVA    H5836477   6.365   5.689   2.297 -1.1872  1.3813 -3.1485
  215PVA    C3036478   6.584   5.726   2.382  0.1034 -0.4445 -0.8774
  215PVA    H5936479   6.509   5.750   2.459 -1.1623  0.3010 -2.3006
  215PVA    H6036480   6.672   5.695   2.439 -0.0605 -3.0035 -1.8377
  215PVA    C3136481   6.638   5.839   2.290 -0.4410 -0.2365 -0.1229
  215PVA    H6136482   6.593   5.837   2.190  0.1359  1.4675 -0.4433
  215PVA    H6236483   6.746   5.831   2.275 -0.4386  2.3706 -2.0693
  215PVA    C3236484   6.617   5.988   2.350 -0.5743 -1.0199  0.2154
  215PVA    H6336485   6.682   6.070   2.318 -2.8312  1.4721  1.5892
  215PVA    O1136486   6.492   6.031   2.285 -0.2327  0.0313 -0.0205
  215PVA    H6436487   6.470   6.114   2.331  3.1376 -0.3757  2.7421
  215PVA    C3336488   6.628   5.994   2.505  0.6055 -0.9094 -0.4580
  215PVA    H6536489   6.700   6.074   2.526  1.0348 -0.9341 -1.7489
  215PVA    H6636490   6.679   5.903   2.538  1.8195 -1.1083 -2.6532
  215PVA    C3436491   6.493   6.040   2.583 -0.4992 -0.4218  0.9544
  215PVA    H6736492   6.424   5.966   2.541  2.5021 -2.4203 -0.8144
  215PVA    H6836493   6.515   6.013   2.687 -1.2278 -3.2122  0.4656
  215PVA    C3536494   6.476   6.193   2.577 -0.0506 -0.9216  0.2433
  215PVA    H6936495   6.514   6.228   2.480  5.4988  0.4695  2.5343
  215PVA    O1236496   6.564   6.245   2.684  0.0868  0.0786  0.8569
  215PVA    H7036497   6.619   6.314   2.643 -2.0485  0.5374 -1.4911
  215PVA    C3636498   6.332   6.242   2.601 -0.3566 -0.0622  0.1093
  215PVA    H7136499   6.278   6.171   2.665  3.0061 -1.9124  1.1412
  215PVA    H7236500   6.281   6.203   2.513  1.0913 -2.7040  0.3584
  215PVA    C3736501   6.309   6.384   2.651 -1.1703  0.6279  0.5130
  215PVA    H7336502   6.376   6.407   2.735  0.5751  0.1572 -0.6971
  215PVA    H7436503   6.348   6.450   2.573 -0.2353 -0.1630  0.2949
  215PVA    C3836504   6.152   6.393   2.695 -0.6516 -0.0757 -1.0193
  215PVA    H7536505   6.148   6.348   2.795 -0.4296  6.6050  2.5630
  215PVA    O1336506   6.062   6.322   2.619 -0.0141 -0.0653 -0.4947
  215PVA    H7636507   5.985   6.329   2.678  1.3507 -2.4008  1.7691
  215PVA    C3936508   6.104   6.534   2.713  0.0176  0.4319 -0.6201
  215PVA    H7736509   6.099   6.589   2.618 -0.1034  0.2601 -0.7140
  215PVA    H7836510   6.189   6.582   2.762  0.8753  0.4740 -2.0878
  215PVA    C4036511   5.966   6.560   2.782  0.1060  1.0346  0.1084
  215PVA    H7936512   5.902   6.500   2.717  1.1075  0.7358 -0.6282
  215PVA    H8036513   5.955   6.522   2.885  0.0693  0.5725 -0.0636
  215PVA    C4136514   5.929   6.709   2.759 -0.8296 -0.3339  0.5717
  215PVA    H8136515   5.895   6.710   2.654  1.6453 -1.5636 -0.3154
  215PVA    O1436516   6.038   6.803   2.786  1.3583  0.1937  0.7196
  215PVA    H8236517   6.076   6.759   2.865  0.6854  0.9094  1.4663
  215PVA    C4236518   5.816   6.755   2.848 -0.4992  0.3462 -0.5392
  215PVA    H8336519   5.738   6.679   2.837 -1.4481  1.2933 -0.4809
  215PVA    H8436520   5.861   6.765   2.948  3.1325  2.7584 -2.1896
  215PVA    C4336521   5.762   6.890   2.791  0.6458  1.2323 -0.4491
  215PVA    H8536522   5.841   6.961   2.765 -1.2511  3.1722 -1.2349
  215PVA    H8636523   5.703   6.864   2.702 -1.1814 -4.1283  1.9356
  215PVA    C4436524   5.652   6.952   2.869  1.2595 -1.8003  0.3438
  215PVA    H8736525   5.570   6.880   2.864 -2.3116  1.7796  1.7216
  215PVA    O1536526   5.701   6.964   2.998  0.2456  0.5119  0.3495
  215PVA    H8836527   5.649   6.902   3.052 -0.5698 -0.6888 -1.7164
  215PVA    C4536528   5.612   7.105   2.827  1.2637  0.1974 -0.6452
  215PVA    H8936529   5.699   7.152   2.781 -0.7361  0.4415 -4.5543
  215PVA    H9036530   5.542   7.100   2.743  2.9488  0.7895 -2.1444
  215PVA    C4636531   5.541   7.207   2.935  0.2028 -0.3956  0.3400
  215PVA    H9136532   5.545   7.307   2.890  0.2971 -1.2152 -1.5409
  215PVA    H9236533   5.608   7.205   3.022  3.4428 -0.9327 -1.9641
  215PVA    C4736534   5.391   7.166   2.969 -0.6539 -0.0386 -0.3985
  215PVA    H9336535   5.351   7.233   3.046  1.5335 -3.3745  4.1491
  215PVA    O1636536   5.316   7.162   2.853  0.2044  0.5793 -0.6906
  215PVA    H9436537   5.366   7.189   2.774 -1.3671 -2.1149 -2.7962
  215PVA    C4836538   5.354   7.035   3.041 -0.8056 -0.3496  0.4577
  215PVA    H9536539   5.249   7.052   3.069 -1.0266  3.2957 -1.8416
  215PVA    H9636540   5.367   6.962   2.960 -2.9368  1.3060 -1.5527
  215PVA    C4936541   5.429   6.995   3.175 -0.3828 -0.6904  0.8376
  215PVA    H9736542   5.384   7.050   3.259 -3.2578  4.8611 -3.6086
  215PVA    H9836543   5.530   7.035   3.163  0.0869 -1.9556  0.4855
  215PVA    C5036544   5.450   6.845   3.213 -0.9092  0.7733  0.4109
  215PVA    H9936545   5.353   6.804   3.182  0.0560 -1.1602 -0.2409
  215PVA    O1736546   5.561   6.802   3.133  0.3309 -0.5608 -0.8625
  215PVA   H10036547   5.518   6.745   3.067 -2.1569 -2.5081  2.1902
  215PVA    C5136548   5.469   6.793   3.359 -0.0835 -0.7713 -0.4217
  215PVA   H10136549   5.500   6.688   3.364  0.3696 -0.6976 -1.5244
  215PVA   H10236550   5.371   6.794   3.409  0.6589  6.0776  1.9548
  216PVA     C136551   5.247   7.278   0.101 -0.4727 -0.1830  0.1261
  216PVA     H136552   5.156   7.313   0.151 -2.7709  1.8266 -4.7642
  216PVA     H236553   5.234   7.352   0.021 -0.3873  0.3543  0.6003
  216PVA     C236554   5.376   7.310   0.180 -1.0849 -0.5253  0.0081
  216PVA     H336555   5.469   7.284   0.129 -0.3971 -1.5574  1.7078
  216PVA     O136556   5.370   7.219   0.291 -0.2836  0.1164 -0.9892
  216PVA     H436557   5.326   7.142   0.251 -1.2815 -0.3683  0.9334
  216PVA     C336558   5.377   7.452   0.224 -0.2015 -0.6214  0.5150
  216PVA     H536559   5.282   7.455   0.279 -1.0777  0.8140 -0.9864
  216PVA     H636560   5.370   7.517   0.136  2.9557  0.1541  0.7205
  216PVA     C436561   5.501   7.509   0.307  0.1323 -0.1938 -0.0557
  216PVA     H736562   5.506   7.472   0.410  0.8457 -2.5951 -0.8966
  216PVA     H836563   5.587   7.457   0.264 -0.3107 -3.0373  2.1713
  216PVA     C536564   5.538   7.663   0.301 -0.3999 -1.0751  1.1798
  216PVA     H936565   5.437   0.020   0.305 -0.7304 -1.5376 -0.8766
  216PVA     O236566   5.605   0.013   0.185 -1.3462  1.5188 -0.0937
  216PVA    H1036567   5.541   0.069   0.138 -0.3937  1.9033 -0.9932
  216PVA     C636568   5.608   0.041   0.419  1.1244  0.5331  0.9120
  216PVA    H1136569   5.689   7.665   0.458  2.1914  2.2334  1.4608
  216PVA    H1236570   5.644   0.135   0.375  0.7712 -0.3057 -1.3261
  216PVA     C736571   5.497   0.055   0.531  1.1128 -0.0404 -0.3731
  216PVA    H1336572   5.467   7.637   0.556  5.1125 -0.9603  1.4804
  216PVA    H1436573   5.416   0.119   0.493 -0.0864 -0.8449  0.7265
  216PVA     C836574   5.539   0.122   0.672 -0.0106  0.7049  0.1569
  216PVA    H1536575   5.623   0.060   0.706  2.4508  2.9535 -1.4430
  216PVA     O336576   5.590   0.245   0.635  0.4348  0.9682  0.2013
  216PVA    H1636577   5.522   0.311   0.611  1.4160  2.2659  0.8178
  216PVA     C936578   5.431   0.126   0.779  0.9451 -0.0082 -0.3999
  216PVA    H1736579   5.359   0.051   0.743  2.0619 -2.9050  2.8284
  216PVA    H1836580   5.385   0.225   0.783 -1.5532 -1.1252  1.5782
  216PVA    C1036581   5.470   0.079   0.926  0.1245 -0.3180  0.7711
  216PVA    H1936582   5.506   7.660   0.940  2.3581  0.7519  4.6926
  216PVA    H2036583   5.552   0.142   0.963 -2.0782  3.3399 -0.1072
  216PVA    C1136584   5.360   0.098   1.026 -0.6552 -0.4369  0.4535
  216PVA    H2136585   5.351   0.205   1.048 -0.3152 -0.3641  0.2409
  216PVA     O436586   5.242   0.046   0.974 -0.3169  0.1378 -0.1192
  216PVA    H2236587   5.233   7.636   0.994  0.8382  0.4320  2.1422
  216PVA    C1236588   5.390   0.043   1.164  0.6418  0.4865  0.5024
  216PVA    H2336589   5.303   0.077   1.222 -0.5857 -2.6459  0.7060
  216PVA    H2436590   5.376   7.619   1.170 -0.4537  0.6587  1.6217
  216PVA    C1336591   5.521   0.079   1.234  0.1613  0.2267  0.3964
  216PVA    H2536592   5.536   0.186   1.212 -4.3450  0.2302 -4.7200
  216PVA    H2636593   5.607   0.034   1.183  0.7102 -1.1191  2.3820
  216PVA    C1436594   5.529   0.020   1.376 -0.3951 -0.3533  0.5221
  216PVA    H2736595   5.515   7.597   1.362 -1.9305 -0.4748  2.5146
  216PVA     O536596   5.436   0.092   1.452  0.2724 -0.3191  0.1179
  216PVA    H2836597   5.483   0.122   1.532  1.5544  1.9102 -1.3472
  216PVA    C1536598   5.667   0.022   1.457 -0.4580 -0.6015 -0.7231
  216PVA    H2936599   5.754   7.660   1.408  0.0414 -1.5196  0.9828
  216PVA    H3036600   5.679   0.131   1.449 -0.4153 -0.6226 -0.9745
  216PVA    C1636601   5.661   7.631   1.589 -0.3848  0.2913  0.3066
  216PVA    H3136602   5.663   7.524   1.567 -1.9959  0.6476 -1.9244
  216PVA    H3236603   5.571   7.651   1.649 -0.3478 -1.2078  0.9054
  216PVA    C1736604   5.773   7.653   1.694 -0.6312  1.1156 -0.2263
  216PVA    H3336605   5.775   0.077   1.711  0.5734  0.7952  2.0213
  216PVA     O636606   5.894   7.594   1.652  0.6335  0.5449 -0.0165
  216PVA    H3436607   5.872   7.509   1.611 -0.5254  1.3231 -1.0501
  216PVA    C1836608   5.737   7.590   1.833 -0.2257  0.7980 -0.8772
  216PVA    H3536609   5.820   7.599   1.904 -0.6095  0.9655 -0.4489
  216PVA    H3636610   5.745   7.482   1.816 -0.2238  0.7500 -0.5612
  216PVA    C1936611   5.607   7.632   1.913 -0.3058  0.1688  0.1553
  216PVA    H3736612   5.535   7.566   1.865 -1.2579  4.7570 -5.8480
  216PVA    H3836613   5.577   0.050   1.888 -2.7869 -0.8484 -1.3358
  216PVA    C2036614   5.633   7.619   2.065  0.0142  0.4624  0.3112
  216PVA    H3936615   5.675   7.518   2.075  0.6689  0.7309  0.3252
  216PVA     O736616   5.730   0.024   2.114 -0.9734  0.9559  0.0763
  216PVA    H4036617   5.752   0.001   2.206  1.2916  2.5357  0.0180
  216PVA    C2136618   5.510   7.626   2.145 -0.0880 -0.7630  0.0047
  216PVA    H4136619   5.537   7.605   2.249  2.0779 -1.4776 -0.6487
  216PVA    H4236620   5.452   7.534   2.125 -1.3009 -0.2248  0.8800
  216PVA    C2236621   5.440   0.082   2.140  1.0335 -0.4307 -0.2876
  216PVA    H4336622   5.386   0.090   2.044  4.0724  1.2714 -2.0234
  216PVA    H4436623   5.517   0.159   2.129  0.6798 -0.2948 -2.2813
  216PVA    C2336624   5.351   0.123   2.263 -0.2897  0.4487  1.8495
  216PVA    H4536625   5.263   0.058   2.273  1.3506 -2.0175  1.2722
  216PVA     O836626   5.421   0.095   2.390 -0.4362  0.0268 -0.5239
  216PVA    H4636627   5.510   0.129   2.369 -0.5395 -0.3145 -1.5838
  216PVA    C2436628   5.306   0.268   2.245  0.4343 -0.6245  0.1293
  216PVA    H4736629   5.400   0.318   2.219 -2.2747  4.9519 -0.6827
  216PVA    H4836630   5.246   0.260   2.153  0.0515 -4.4998  0.5800
  216PVA    C2536631   5.248   0.347   2.361  0.1051 -0.4175  0.2665
  216PVA    H4936632   5.172   0.288   2.412  0.5533 -2.8588 -1.7135
  216PVA    H5036633   5.180   0.423   2.320 -1.4406 -1.9896 -0.1838
  216PVA    C2636634   5.344   0.411   2.461  1.0362  0.6497 -0.0918
  216PVA    H5136635   5.265   0.455   2.523 -1.9504 -0.6276 -2.6936
  216PVA     O936636   5.408   0.326   2.547  0.4085 -0.8853  0.6328
  216PVA    H5236637   5.376   0.241   2.512  0.2398 -0.5959  0.0820
  216PVA    C2736638   5.423   0.531   2.401 -0.4099  0.0472  0.4368
  216PVA    H5336639   5.369   0.586   2.323  2.9281  1.1716 -1.3111
  216PVA    H5436640   5.501   0.479   2.343  3.1551  1.9683  3.0610
  216PVA    C2836641   5.503   0.620   2.480  0.2226  0.0213  0.2439
  216PVA    H5536642   5.439   0.683   2.542 -2.3726 -3.3046  1.2588
  216PVA    H5636643   5.577   0.564   2.539  0.8555 -0.4619 -0.9624
  216PVA    C2936644   5.595   0.724   2.397 -0.5418  0.2844  0.1457
  216PVA    H5736645   5.537   0.809   2.360 -0.9995 -0.8031 -1.7970
  216PVA    O1036646   5.645   0.674   2.279 -0.0772 -0.1388  0.3184
  216PVA    H5836647   5.742   0.668   2.283  0.3525  2.3634 -2.5147
  216PVA    C3036648   5.708   0.771   2.490  0.1257 -0.5845  0.1572
  216PVA    H5936649   5.672   0.813   2.584 -1.3724 -2.2118  0.3747
  216PVA    H6036650   5.770   0.686   2.523 -2.0995 -3.7060 -2.9792
  216PVA    C3136651   5.805   0.881   2.436 -0.1234  0.3536 -0.5696
  216PVA    H6136652   5.793   0.961   2.510 -1.1920 -0.8700  0.6371
  216PVA    H6236653   5.768   0.924   2.342 -2.9414 -0.3221  0.1155
  216PVA    C3236654   5.949   0.824   2.420 -0.5896  0.3616  0.3374
  216PVA    H6336655   6.011   0.904   2.378  1.3697 -1.8779 -1.3013
  216PVA    O1136656   5.929   0.714   2.321 -0.6512 -0.0068 -0.2218
  216PVA    H6436657   5.975   0.750   2.244 -2.2511  2.5136 -0.0951
  216PVA    C3336658   6.005   0.778   2.554  0.5189  0.7597  0.6303
  216PVA    H6536659   5.957   0.687   2.592 -2.7964  2.0409 -0.2299
  216PVA    H6636660   5.995   0.856   2.630  0.1906  2.0894 -0.7244
  216PVA    C3436661   6.158   0.759   2.545  0.2832 -0.3747 -0.0186
  216PVA    H6736662   6.190   0.716   2.449  1.7401  0.7643 -0.0761
  216PVA    H6836663   6.209   0.855   2.536 -0.1747 -0.2455 -1.6260
  216PVA    C3536664   6.219   0.668   2.651  0.4535 -0.2046 -0.6976
  216PVA    H6936665   6.329   0.679   2.645  0.6247 -1.6999 -0.6530
  216PVA    O1236666   6.196   0.717   2.785  0.5217 -0.0971 -0.8784
  216PVA    H7036667   6.107   0.753   2.800 -1.0055 -4.3651  2.5144
  216PVA    C3636668   6.190   0.518   2.635  0.1967 -0.7930 -0.4441
  216PVA    H7136669   6.090   0.501   2.677 -0.3040  3.3756  0.5036
  216PVA    H7236670   6.197   0.491   2.529  3.1510  2.8379 -1.3834
  216PVA    C3736671   6.300   0.432   2.689  0.4629  1.2589 -0.3078
  216PVA    H7336672   6.296   0.445   2.797 -0.7852 -1.1443  0.0038
  216PVA    H7436673   6.398   0.473   2.660  0.7683  0.0839 -1.0067
  216PVA    C3836674   6.276   0.277   2.659  0.2094 -0.6520  0.0404
  216PVA    H7536675   6.354   0.230   2.721  0.4364 -0.5142 -0.1390
  216PVA    O1336676   6.292   0.235   2.524  0.3633 -0.2977  0.6282
  216PVA    H7636677   6.386   0.249   2.508 -0.5452  2.6397 -4.4174
  216PVA    C3936678   6.153   0.220   2.738 -0.6538  1.2480 -0.4638
  216PVA    H7736679   6.132   0.276   2.831  1.2889 -2.2047  2.3110
  216PVA    H7836680   6.064   0.242   2.679 -1.4784 -2.0351 -0.6404
  216PVA    C4036681   6.153   0.065   2.771  0.6390  0.6776 -0.1729
  216PVA    H7936682   6.207   0.016   2.689  0.4819  1.7943 -0.9672
  216PVA    H8036683   6.220   0.053   2.857 -0.5771  0.9807  0.8498
  216PVA    C4136684   6.022   7.678   2.792  0.2123 -0.3899 -0.9732
  216PVA    H8136685   6.036   7.573   2.766 -2.8700 -0.0040 -5.4185
  216PVA    O1436686   5.925   0.033   2.687 -0.8120 -0.6363  0.0990
  216PVA    H8236687   5.833   0.012   2.710 -2.0815  1.1288 -2.7676
  216PVA    C4236688   5.964   0.009   2.928  0.3237 -0.2467 -1.2928
  216PVA    H8336689   5.989   0.106   2.974 -2.7211  0.8874 -1.8243
  216PVA    H8436690   5.857   0.012   2.906  0.7464  3.4025 -3.7749
  216PVA    C4336691   6.015   7.584   3.032  0.4510 -0.3970  0.5180
  216PVA    H8536692   5.988   7.618   3.133 -0.3132  0.3148  0.0838
  216PVA    H8636693   6.125   7.582   3.036  0.5725  2.8025  1.3593
  216PVA    C4436694   5.943   7.449   3.018  0.1535 -0.6359 -0.6352
  216PVA    H8736695   5.908   7.437   2.915 -3.8579 -2.0280  0.6729
  216PVA    O1536696   5.837   7.457   3.127  0.4780  0.7118 -0.0019
  216PVA    H8836697   5.857   7.376   3.177 -0.5002  1.0292  0.9299
  216PVA    C4536698   6.045   7.334   3.041 -0.8446 -0.5392 -0.2376
  216PVA    H8936699   6.086   7.362   3.138  3.2140  2.1209 -2.4044
  216PVA    H9036700   6.110   7.338   2.953 -0.9826 -1.3667 -0.3815
  216PVA    C4636701   5.983   7.198   3.045 -0.6350  0.6221 -0.5172
  216PVA    H9136702   5.898   7.195   3.114 -1.3210  0.5312 -1.3530
  216PVA    H9236703   5.924   7.182   2.953 -2.5673 -0.4495  0.8372
  216PVA    C4736704   6.077   7.074   3.067 -0.7823  0.2040  0.0159
  216PVA    H9336705   6.148   7.064   2.984 -0.4084 -3.2670  0.5621
  216PVA    O1636706   6.004   6.959   3.058 -0.3736  0.4869  0.8488
  216PVA    H9436707   5.911   6.982   3.042 -0.8362 -0.3657  2.0964
  216PVA    C4836708   6.156   7.074   3.200 -0.1038  0.3778  0.3914
  216PVA    H9536709   6.219   6.984   3.206  2.6441  2.0008 -1.7393
  216PVA    H9636710   6.229   7.155   3.187 -0.9142  1.3440  1.5922
  216PVA    C4936711   6.070   7.087   3.329 -0.4608  0.4411  0.1157
  216PVA    H9736712   6.009   7.178   3.323 -0.9777  0.3482  2.7662
  216PVA    H9836713   6.146   7.079   3.408 -4.7535 -3.6246  4.5442
  216PVA    C5036714   5.978   6.980   3.359  1.5781  0.0997 -0.5468
  216PVA    H9936715   5.895   6.967   3.288  1.2119 -1.9334  0.1675
  216PVA    O1736716   6.032   6.847   3.343 -0.3767  0.5891  0.3922
  216PVA   H10036717   6.060   6.858   3.251 -3.1135 -0.7182 -0.6917
  216PVA    C5136718   5.900   7.004   3.491  0.7257  1.3236 -0.4535
  216PVA   H10136719   5.970   6.992   3.574 -1.0204 -3.8552  0.6857
  216PVA   H10236720   5.859   7.105   3.505 -0.9309  0.7389 -0.8541
  217PVA     C136721   4.924   6.978   0.113 -0.0785  0.3765 -0.0613
  217PVA     H136722   4.965   7.008   0.210  2.1463 -0.9446 -0.5145
  217PVA     H236723   4.892   6.874   0.103 -0.3105  0.6697 -3.9681
  217PVA     C236724   4.795   7.074   0.092 -0.7199 -0.1986 -0.1880
  217PVA     H336725   4.819   7.178   0.117 -0.3403 -0.6806  1.5773
  217PVA     O136726   4.770   7.079   8.056  0.4092  0.4630  0.3889
  217PVA     H436727   4.739   7.168   8.034  0.8301  1.1407  2.2993
  217PVA     C336728   4.669   7.023   0.164  0.4598 -0.6597 -0.1703
  217PVA     H536729   4.617   6.941   0.113 -0.6793  1.5742 -2.8822
  217PVA     H636730   4.696   6.986   0.263  2.1653  0.8719 -0.0042
  217PVA     C436731   4.552   7.129   0.180  0.4441 -0.2011  0.7649
  217PVA     H736732   4.582   7.229   0.213  0.3920 -0.7597  2.6302
  217PVA     H836733   4.517   7.136   0.076  2.5744 -1.1766 -0.0685
  217PVA     C536734   4.444   7.077   0.286 -0.1739  1.9332  2.0032
  217PVA     H936735   4.493   7.040   0.377  0.2081  0.0281  1.0732
  217PVA     O236736   4.383   6.950   0.245  0.6884  0.1785  0.0301
  217PVA    H1036737   4.375   6.903   0.330 -2.4623  2.7593  1.3721
  217PVA     C636738   4.331   7.180   0.344 -0.4299  0.6371  0.8762
  217PVA    H1136739   4.385   7.251   0.408  0.6070 -0.8001  1.6728
  217PVA    H1236740   4.296   7.235   0.256 -0.7601  0.5683  0.9626
  217PVA     C736741   4.224   7.107   0.426  0.2609 -1.0132 -0.4797
  217PVA    H1336742   4.191   7.022   0.364  0.0666 -0.5520 -1.0195
  217PVA    H1436743   4.270   7.077   0.521 -4.5146 -0.9621  2.1230
  217PVA     C836744   4.104   7.192   0.472 -0.5670  0.2984 -0.4229
  217PVA    H1536745   4.048   7.231   0.386  0.1591  0.5642 -0.7827
  217PVA     O336746   4.147   7.314   0.521 -0.1314 -0.4337 -0.0719
  217PVA    H1636747   4.100   7.386   0.475  3.0030  3.2095  1.8617
  217PVA     C936748   3.999   7.107   0.551 -0.0436  0.1551 -0.9710
  217PVA    H1736749   4.044   7.062   0.640  1.7562 -0.3169 -2.0589
  217PVA    H1836750   3.968   7.039   0.471  0.6725 -3.1475  1.3549
  217PVA    C1036751   3.874   7.188   0.607  0.0148 -0.4737 -0.8171
  217PVA    H1936752   3.911   7.264   0.677  1.5683 -2.3817  0.5467
  217PVA    H2036753   3.844   7.250   0.522  1.1608  0.4167 -0.5910
  217PVA    C1136754   3.766   7.106   0.662  0.3026 -0.2458 -0.1756
  217PVA    H2136755   3.810   7.015   0.704 -1.2663 -0.6631  0.6166
  217PVA     O436756   3.686   7.056   0.563 -0.1911 -0.4738 -1.1107
  217PVA    H2236757   3.695   7.107   0.481  0.4032 -2.7573 -2.5353
  217PVA    C1236758   3.681   7.176   0.768 -0.8594  0.9583  0.2203
  217PVA    H2336759   3.659   7.268   0.713 -3.9068 -2.3469 -4.9879
  217PVA    H2436760   3.742   7.191   0.857 -0.0057  2.5358 -0.5810
  217PVA    C1336761   3.553   7.114   0.811 -0.1552 -0.0902  0.4490
  217PVA    H2536762   3.503   7.068   0.725  0.2296  1.5937 -0.7306
  217PVA    H2636763   3.571   7.033   0.882  0.8926 -0.9109 -0.7051
  217PVA    C1436764   3.463   7.214   0.897  0.3583 -0.5289  0.4792
  217PVA    H2736765   3.479   7.320   0.877 -1.8286  0.0515  1.4605
  217PVA     O536766   3.493   7.195   1.032 -1.1980  0.2751 -0.5902
  217PVA    H2836767   3.578   7.219   1.072  0.5301 -2.2613 -2.4361
  217PVA    C1536768   3.309   7.182   0.883  0.0265 -0.3396 -0.1907
  217PVA    H2936769   3.304   7.158   0.776 -0.4412  0.5994 -0.3968
  217PVA    H3036770   3.258   7.278   0.902 -1.8194 -1.3517  0.2547
  217PVA    C1636771   3.235   7.059   0.950 -0.9145 -0.5477  0.1652
  217PVA    H3136772   3.280   6.974   0.898 -5.7423 -3.2559 -0.1421
  217PVA    H3236773   3.272   7.052   1.053 -1.0196 -0.2538  0.2241
  217PVA    C1736774   3.080   7.043   0.929 -0.5723  0.0374  0.2473
  217PVA    H3336775   3.075   7.018   0.822 -0.1743 -2.4052  0.7203
  217PVA     O636776   3.010   7.165   0.965 -0.1188  0.0743 -0.0145
  217PVA    H3436777   3.052   7.228   0.904  0.1021  0.7335  0.7992
  217PVA    C1836778   3.012   6.923   1.009 -1.6311  0.2159  0.9385
  217PVA    H3536779   3.060   6.830   0.977  0.0023  0.0195  3.6696
  217PVA    H3636780   3.029   6.941   1.116 -0.7673  0.2525  0.8003
  217PVA    C1936781   2.868   6.894   0.991 -0.1982  0.3544  0.0040
  217PVA    H3736782   2.865   6.904   0.882 -0.2201  0.2608 -0.0042
  217PVA    H3836783   2.813   6.986   1.013  0.7753  2.1362 -4.1325
  217PVA    C2036784   2.812   6.758   1.047  0.3264  0.8712  0.1952
  217PVA    H3936785   2.831   6.750   1.155  0.8503 -2.9097 -0.0577
  217PVA     O736786   2.894   6.669   0.986 -0.0281 -0.1668 -0.8912
  217PVA    H4036787   2.877   6.579   1.019  0.1682  0.1611  0.1364
  217PVA    C2136788   2.663   6.715   1.036  0.5204 -0.2069  0.7905
  217PVA    H4136789   2.619   6.766   0.950  2.3038  4.5135  2.3372
  217PVA    H4236790   2.624   6.768   1.124  1.5467 -0.8917  1.6772
  217PVA    C2236791   2.635   6.566   1.045  0.5914 -0.4815 -0.0837
  217PVA    H4336792   2.664   6.529   0.946  1.1864  0.0292 -0.1061
  217PVA    H4436793   2.699   6.520   1.121 -1.0358 -0.6661  1.2285
  217PVA    C2336794   2.484   6.513   1.043 -0.1321 -0.0853  0.2740
  217PVA    H4536795   2.435   6.534   0.948  0.4491  0.2879  0.0558
  217PVA     O836796   2.496   6.379   1.035  0.4583  0.6642 -0.2932
  217PVA    H4636797   2.527   6.336   1.117 -0.2995 -1.3748 -1.0144
  217PVA    C2436798   2.396   6.524   1.167 -0.3241  0.4577  0.3864
  217PVA    H4736799   2.468   6.544   1.248  1.5831  1.8538 -1.5275
  217PVA    H4836800   2.334   6.615   1.170 -1.2825 -0.1976  1.2947
  217PVA    C2536801   2.300   6.407   1.205 -0.5564 -0.2422  0.3657
  217PVA    H4936802   2.234   6.389   1.120 -0.2981 -1.0983  0.3349
  217PVA    H5036803   2.351   6.314   1.235  0.2988  0.6929  1.9833
  217PVA    C2636804   2.218   6.429   1.346 -0.8047 -0.6638  0.4695
  217PVA    H5136805   2.195   6.536   1.355 -0.2738 -0.6561  2.0041
  217PVA     O936806   2.297   6.394   1.458 -0.2954 -0.2183  1.0849
  217PVA    H5236807   2.305   6.297   1.467  0.5645 -0.1612  0.9650
  217PVA    C2736808   2.087   6.352   1.364 -0.1923  0.7039  0.9657
  217PVA    H5336809   2.096   6.273   1.441  1.2661 -0.5052 -0.3808
  217PVA    H5436810   2.069   6.296   1.272 -1.6395  0.4305  1.3748
  217PVA    C2836811   1.956   6.428   1.394 -0.7629  0.0737 -1.1618
  217PVA    H5536812   1.938   6.453   1.499  2.6259 -3.5011  0.5749
  217PVA    H5636813   1.964   6.526   1.345 -1.0416  1.0814  0.7265
  217PVA    C2936814   1.822   6.382   1.345 -0.3499 -0.0558 -0.1699
  217PVA    H5736815   1.842   6.342   1.245 -1.1382  1.8707 -1.1588
  217PVA    O1036816   1.771   6.269   1.428 -0.5367  0.3624  0.3109
  217PVA    H5836817   1.807   6.186   1.391  3.4262  1.1712  1.8412
  217PVA    C3036818   1.702   6.474   1.324 -0.4537 -0.3930  1.1863
  217PVA    H5936819   1.730   6.576   1.298 -1.2502 -0.7795 -1.4123
  217PVA    H6036820   1.667   6.480   1.428  1.1804  1.8582  1.6711
  217PVA    C3136821   1.583   6.442   1.231  0.6773  0.0919  0.2404
  217PVA    H6136822   1.565   6.335   1.216 -0.7806  0.5235 -1.5005
  217PVA    H6236823   1.498   6.482   1.288 -0.0479  2.9018 -2.5326
  217PVA    C3236824   1.556   6.504   1.097 -1.3208  0.4324  0.0269
  217PVA    H6336825   1.458   6.551   1.114 -2.0638 -0.6215 -1.1931
  217PVA    O1136826   1.637   6.610   1.077  0.2469  0.2926  0.0501
  217PVA    H6436827   1.662   6.628   0.985  1.2045 -5.5792 -1.2676
  217PVA    C3336828   1.528   6.410   0.974  1.0368 -0.5190 -0.0614
  217PVA    H6536829   1.420   6.397   0.963  1.1513 -0.7288 -1.0291
  217PVA    H6636830   1.565   6.310   1.000  0.7355 -1.6747 -3.5880
  217PVA    C3436831   1.583   6.444   0.831  0.5352 -0.2191 -0.3170
  217PVA    H6736832   1.511   6.509   0.779 -1.6183 -1.0853  1.3887
  217PVA    H6836833   1.671   6.506   0.849 -2.4450  3.1229  5.7602
  217PVA    C3536834   1.622   6.321   0.745  0.2370 -0.0834 -1.7086
  217PVA    H6936835   1.673   6.251   0.813 -0.0322  3.7197  2.9493
  217PVA    O1236836   1.496   6.253   0.717 -0.9954 -0.8299  0.1627
  217PVA    H7036837   1.464   6.297   0.636  0.5672  1.1440  0.5236
  217PVA    C3636838   1.707   6.345   0.619 -0.2643  1.9961  0.5091
  217PVA    H7136839   1.634   6.331   0.538 -0.1572 -0.2000  0.7152
  217PVA    H7236840   1.752   6.444   0.606 -0.1787  2.3465  3.0317
  217PVA    C3736841   1.827   6.249   0.605 -0.1470  0.8632  0.2655
  217PVA    H7336842   1.792   6.153   0.644 -4.1495  0.9048 -2.6022
  217PVA    H7436843   1.895   6.292   0.679 -0.0840  4.2278 -1.5315
  217PVA    C3836844   1.896   6.239   0.461 -0.0514  0.1532  0.3254
  217PVA    H7536845   1.814   6.219   0.391 -0.5794 -1.7957  1.4259
  217PVA    O1336846   1.940   6.373   0.426 -0.0577 -0.4641 -0.0518
  217PVA    H7636847   1.958   6.373   0.331 -2.1097 -2.2328 -0.5150
  217PVA    C3936848   2.007   6.134   0.454 -0.2353  0.3798  0.2569
  217PVA    H7736849   1.965   6.035   0.474  0.1374 -0.8544 -4.0709
  217PVA    H7836850   2.058   6.156   0.548 -3.2158 -1.2880  2.4430
  217PVA    C4036851   2.098   6.148   0.329 -0.0871 -0.5011 -0.5680
  217PVA    H7936852   2.037   6.132   0.240 -2.0168 -0.6923  0.7359
  217PVA    H8036853   2.138   6.249   0.320  0.7263 -0.9947 -3.8735
  217PVA    C4136854   2.235   6.071   0.301  0.2913  1.1080  0.7502
  217PVA    H8136855   2.184   5.993   0.243 -1.4369  2.5790  0.2359
  217PVA    O1436856   2.295   6.006   0.413 -0.1601  0.1002  0.2129
  217PVA    H8236857   2.248   5.921   0.417 -3.6733  1.6931 -2.0670
  217PVA    C4236858   2.344   6.130   0.208  0.9182  1.0597 -0.3878
  217PVA    H8336859   2.333   6.084   0.108  2.5297 -0.9277  0.2869
  217PVA    H8436860   2.329   6.239   0.202 -0.6375  1.0634  2.1480
  217PVA    C4336861   2.494   6.101   0.239 -0.2895 -0.1196  0.1036
  217PVA    H8536862   2.518   6.123   0.344 -2.1404 -0.1821  0.5667
  217PVA    H8636863   2.495   5.992   0.236  1.1182 -0.1391  0.6912
  217PVA    C4436864   2.601   6.161   0.144  1.1134  0.2154  0.6296
  217PVA    H8736865   2.576   6.108   0.051 -3.2461  0.2975  1.5424
  217PVA    O1536866   2.559   6.293   0.131  0.1521 -0.9514 -0.4669
  217PVA    H8836867   2.474   6.292   0.179 -2.1628  1.2500 -4.0119
  217PVA    C4536868   2.749   6.174   0.189 -0.4846  0.2015  0.0393
  217PVA    H8936869   2.800   6.077   0.184  0.7522  0.7978  0.7991
  217PVA    H9036870   2.754   6.207   0.293  0.2760  0.2266 -0.0026
  217PVA    C4636871   2.845   6.267   0.117  0.2477 -0.7260  0.2737
  217PVA    H9136872   2.854   6.255   0.009 -3.0584 -1.8323  0.0297
  217PVA    H9236873   2.814   6.372   0.125  3.6216  0.5560 -1.4338
  217PVA    C4736874   2.994   6.251   0.176 -0.6629  0.2065  0.7110
  217PVA    H9336875   2.979   6.260   0.284 -3.0885 -0.3663  0.4763
  217PVA    O1636876   3.051   6.128   0.142  0.5390 -0.2627 -0.8480
  217PVA    H9436877   3.068   6.130   0.047 -0.1174  2.4488 -0.9863
  217PVA    C4836878   3.092   6.363   0.120 -0.9196 -0.8170  0.8400
  217PVA    H9536879   3.143   6.306   0.041 -2.6865 -1.8344  0.3883
  217PVA    H9636880   3.036   6.436   0.060 -1.2560 -1.9131 -0.2154
  217PVA    C4936881   3.197   6.412   0.232 -0.1831  0.0611  0.3191
  217PVA    H9736882   3.152   6.417   0.332  2.1959  1.0762  1.3994
  217PVA    H9836883   3.259   6.323   0.247 -1.8400 -1.2362 -0.1131
  217PVA    C5036884   3.274   6.540   0.193 -0.3500  0.2624 -0.2587
  217PVA    H9936885   3.362   6.514   0.134 -0.5889 -3.3553  0.7681
  217PVA    O1736886   3.195   6.622   0.102 -0.0447 -0.2154  0.7210
  217PVA   H10036887   3.245   6.682   0.045 -1.2482  0.2297  0.1199
  217PVA    C5136888   3.312   6.627   0.317  0.4528 -0.3742 -0.2112
  217PVA   H10136889   3.389   6.587   0.383 -1.6109 -4.6883 -0.1220
  217PVA   H10236890   3.228   6.664   0.376  0.0140 -0.5975 -0.6897
  218PVA     C136891   5.037   6.637   4.179 -0.7257  0.3999 -1.1728
  218PVA     H136892   5.040   6.657   4.071 -3.4182 -0.7305 -1.5232
  218PVA     H236893   5.040   6.527   4.182  2.1969  0.3494 -2.4225
  218PVA     C236894   4.921   6.710   4.242 -0.0299  0.8138 -0.3244
  218PVA     H336895   4.920   6.737   4.348 -0.4927  1.5092 -0.5043
  218PVA     O136896   4.892   6.821   4.160 -0.5278  0.3374 -0.0431
  218PVA     H436897   4.983   6.853   4.143  0.7018 -1.2493  2.8094
  218PVA     C336898   4.799   6.613   4.231 -0.9653  0.2735 -1.0352
  218PVA     H536899   4.823   6.535   4.304 -3.1354  0.5852  0.0978
  218PVA     H636900   4.803   6.564   4.133  1.2671  4.3220 -3.2494
  218PVA     C436901   4.662   6.671   4.289 -1.5821  0.4647 -0.9544
  218PVA     H736902   4.648   6.712   4.390 -1.7747  0.5907 -1.0323
  218PVA     H836903   4.614   6.749   4.228 -3.1754  2.0999  2.1512
  218PVA     C536904   4.569   6.549   4.297  0.9642  0.2950 -1.4263
  218PVA     H936905   4.604   6.492   4.210  3.2580  1.4925 -1.3626
  218PVA     O236906   4.434   6.578   4.259 -0.4928  0.3967  0.1140
  218PVA    H1036907   4.430   6.674   4.273  0.3415  0.1513  2.6597
  218PVA     C636908   4.577   6.461   4.430 -0.1224 -0.1508  0.4101
  218PVA    H1136909   4.515   6.374   4.406  0.7055 -0.6566  0.0843
  218PVA    H1236910   4.668   6.404   4.450  1.2183  1.5751 -0.4132
  218PVA     C736911   4.527   6.533   4.555  0.8519 -0.3381  0.1249
  218PVA    H1336912   4.423   6.545   4.522  0.8767 -2.5147 -0.8712
  218PVA    H1436913   4.574   6.632   4.566 -0.3651  0.3296 -0.3922
  218PVA     C836914   4.524   6.444   4.680  0.0257  0.5162  0.8711
  218PVA    H1536915   4.626   6.435   4.720  0.0631  0.2836  0.7254
  218PVA     O336916   4.478   6.316   4.655 -0.1001 -0.8318 -0.0051
  218PVA    H1636917   4.512   6.257   4.585 -3.2759 -3.7839  0.6463
  218PVA     C936918   4.450   6.521   4.787 -1.0532  0.4306  1.0341
  218PVA    H1736919   4.353   6.554   4.748 -1.1515  1.8253  2.3270
  218PVA    H1836920   4.517   6.608   4.789  0.9434 -0.6078 -4.2668
  218PVA    C1036921   4.431   6.470   4.933  0.0965 -0.2258 -0.8774
  218PVA    H1936922   4.390   6.368   4.936 -0.1879 -0.5056  6.6440
  218PVA    H2036923   4.530   6.433   4.964 -0.2571 -2.5131 -2.2458
  218PVA    C1136924   4.359   6.557   5.046 -0.6332  0.2076 -1.2066
  218PVA    H2136925   4.397   6.660   5.040 -1.7249  0.6695 -0.3661
  218PVA     O436926   4.223   6.588   5.008 -0.5394  0.4609  0.5973
  218PVA    H2236927   4.197   6.503   4.967  2.1858 -0.0793 -0.2301
  218PVA    C1236928   4.378   6.502   5.196 -0.0535 -0.5036  1.0583
  218PVA    H2336929   4.274   6.499   5.230  0.3597 -0.8360  2.3395
  218PVA    H2436930   4.431   6.579   5.254  0.2146  0.2446 -0.1430
  218PVA    C1336931   4.448   6.361   5.215  0.1876  0.6436  0.3511
  218PVA    H2536932   4.552   6.366   5.180  1.7635 -2.3438  3.8846
  218PVA    H2636933   4.392   6.282   5.163  1.6451 -1.5306  1.8726
  218PVA    C1436934   4.453   6.313   5.367  1.0577  0.9678 -1.2260
  218PVA    H2736935   4.495   6.387   5.436  0.3987 -0.2312  0.5369
  218PVA     O536936   4.308   6.294   5.412 -0.7079 -0.5585 -0.9747
  218PVA    H2836937   4.272   6.356   5.477  1.8278 -0.7468  0.7439
  218PVA    C1536938   4.521   6.177   5.379  0.0688 -0.6968 -0.0827
  218PVA    H2936939   4.456   6.124   5.450  0.0230  1.9525  2.0019
  218PVA    H3036940   4.532   6.122   5.285 -0.3671 -2.9606  1.0996
  218PVA    C1636941   4.666   6.183   5.437  1.0271 -0.4963 -0.7025
  218PVA    H3136942   4.668   6.228   5.537  2.8744 -0.1771 -0.8340
  218PVA    H3236943   4.737   6.237   5.371  2.6060 -0.0184  1.2833
  218PVA    C1736944   4.716   6.036   5.452 -0.1457  0.3425 -0.7224
  218PVA    H3336945   4.625   5.991   5.493  1.7292 -1.9934  1.2192
  218PVA     O636946   4.764   5.974   5.324  0.8255  0.3058 -0.5276
  218PVA    H3436947   4.777   5.878   5.332  0.7312 -0.1290 -4.0997
  218PVA    C1836948   4.833   6.019   5.550  0.3591  0.1661 -0.1620
  218PVA    H3536949   4.922   6.071   5.513  0.3423  0.6900  0.5135
  218PVA    H3636950   4.798   6.066   5.643 -1.2995 -0.1166 -0.6078
  218PVA    C1936951   4.877   5.870   5.549 -0.4662 -1.7793  0.4571
  218PVA    H3736952   4.949   5.850   5.469  1.3191  0.7377  1.3434
  218PVA    H3836953   4.801   5.790   5.545  1.7603 -3.9617 -2.8654
  218PVA    C2036954   4.947   5.831   5.684 -0.1439 -0.5443  0.8994
  218PVA    H3936955   5.046   5.879   5.678 -0.5682  0.9409  3.8119
  218PVA     O736956   4.977   5.691   5.693  0.2145 -0.2249  0.2867
  218PVA    H4036957   5.040   5.687   5.767  0.6697 -1.7651 -0.1595
  218PVA    C2136958   4.894   5.888   5.819 -0.5244 -0.1473  0.3656
  218PVA    H4136959   4.879   5.797   5.878  3.6423 -1.7873 -0.7840
  218PVA    H4236960   4.815   5.965   5.820  0.8359  1.5130  4.1691
  218PVA    C2236961   5.010   5.951   5.897  1.0572 -0.3154  0.9960
  218PVA    H4336962   5.097   5.885   5.908  1.1875 -0.7873 -1.9889
  218PVA    H4436963   5.043   6.041   5.843  0.2336  0.0158  1.0228
  218PVA    C2336964   4.962   6.008   6.035  0.1059 -0.1332  0.2776
  218PVA    H4536965   4.873   6.065   6.005  1.1790  1.2737 -0.3141
  218PVA     O836966   4.931   5.897   6.128 -0.0538  0.0828  0.5632
  218PVA    H4636967   4.836   5.876   6.121  0.4821 -2.2899 -4.8179
  218PVA    C2436968   5.063   6.107   6.091 -0.6008 -1.2799  0.5399
  218PVA    H4736969   5.148   6.056   6.138  0.9102  2.1947  1.9070
  218PVA    H4836970   5.091   6.168   6.004 -1.6208 -5.1821 -2.8355
  218PVA    C2536971   4.997   6.193   6.202 -0.2722 -0.5215  0.4206
  218PVA    H4936972   5.050   6.175   6.296  0.3229  2.4484  0.7418
  218PVA    H5036973   4.897   6.160   6.232 -1.4249  0.5665 -1.9828
  218PVA    C2636974   5.012   6.347   6.177  1.7123  0.0948  0.2535
  218PVA    H5136975   4.973   6.378   6.079  0.6349 -3.0739 -0.4493
  218PVA     O936976   5.155   6.392   6.195 -1.0277 -0.5842  0.9515
  218PVA    H5236977   5.183   6.483   6.176  3.1953 -1.4865  1.8888
  218PVA    C2736978   4.938   6.408   6.302  0.7816 -0.1343 -0.0382
  218PVA    H5336979   5.005   6.398   6.388 -2.7696 -0.5124  2.8844
  218PVA    H5436980   4.842   6.359   6.323  0.4083 -0.1584 -1.6576
  218PVA    C2836981   4.908   6.562   6.266  0.9256  0.0854  0.2517
  218PVA    H5536982   5.012   6.593   6.256  1.1571 -0.9183 -0.6062
  218PVA    H5636983   4.848   6.552   6.175 -2.0221  0.3732  2.0055
  218PVA    C2936984   4.826   6.647   6.372 -0.2269 -0.2374 -0.8466
  218PVA    H5736985   4.800   6.745   6.331 -3.3556  1.0855  3.5717
  218PVA    O1036986   4.697   6.583   6.404 -0.0610 -0.3292 -0.1715
  218PVA    H5836987   4.707   6.582   6.500 -0.0846  0.5126 -0.1480
  218PVA    C3036988   4.902   6.686   6.493  0.1422 -0.1884  0.4100
  218PVA    H5936989   4.995   6.724   6.449  1.5533 -1.2215  2.3276
  218PVA    H6036990   4.874   6.779   6.543  3.0795  0.1316  1.6933
  218PVA    C3136991   4.941   6.579   6.593 -0.9140  0.7335 -0.5656
  218PVA    H6136992   4.987   6.483   6.568  1.0336  1.2017  0.9413
  218PVA    H6236993   5.034   6.605   6.645 -0.8206 -1.8196  0.6909
  218PVA    C3236994   4.841   6.566   6.717 -0.4847  0.4243 -0.4126
  218PVA    H6336995   4.804   6.669   6.731 -0.5505  0.8966 -3.4203
  218PVA    O1136996   4.727   6.493   6.673  0.6447  0.0568 -0.0965
  218PVA    H6436997   4.660   6.522   6.737  0.4172  1.9389 -1.0997
  218PVA    C3336998   4.917   6.523   6.847 -1.1204  1.7701 -0.3136
  218PVA    H6536999   5.026   6.527   6.855 -1.0131 -1.6254  1.2557
  218PVA    H6637000   4.918   6.414   6.858  0.2100  1.3825 -3.1812
  218PVA    C3437001   4.842   6.586   6.967 -1.0698  0.8432 -0.4877
  218PVA    H6737002   4.824   6.691   6.943 -2.5160  1.0770  1.3670
  218PVA    H6837003   4.740   6.546   6.971  0.1194 -2.4022  0.8687
  218PVA    C3537004   4.913   6.558   7.104  0.8649  0.7383 -0.4253
  218PVA    H6937005   4.998   6.627   7.112  1.8044 -0.5861  1.5171
  218PVA    O1237006   4.961   6.419   7.124 -0.4820 -0.1284  0.7277
  218PVA    H7037007   4.998   6.389   7.039 -2.1982 -1.5052  0.3996
  218PVA    C3637008   4.819   6.607   7.226 -0.2794  0.8577  0.1769
  218PVA    H7137009   4.819   6.716   7.214  0.5617  0.8759  0.2955
  218PVA    H7237010   4.722   6.556   7.228  1.0394 -1.8135 -0.5874
  218PVA    C3737011   4.883   6.565   7.357 -0.2598 -0.8932 -0.1928
  218PVA    H7337012   4.991   6.583   7.357 -0.5273  0.9379 -0.9329
  218PVA    H7437013   4.885   6.459   7.386 -1.3885 -0.8033  0.2617
  218PVA    C3837014   4.827   6.625   7.492 -0.5459 -1.6990 -0.6454
  218PVA    H7537015   4.909   6.596   7.560  0.2366  3.0189  0.7475
  218PVA    O1337016   4.812   6.772   7.473  0.5108 -0.5433  1.1910
  218PVA    H7637017   4.817   6.825   7.555 -0.9019  0.3143  0.7555
  218PVA    C3937018   4.696   6.567   7.545  0.1880 -0.3308  1.4329
  218PVA    H7737019   4.724   6.469   7.587  0.0778 -0.3042  1.5687
  218PVA    H7837020   4.630   6.566   7.457 -0.0412  4.4961  1.2731
  218PVA    C4037021   4.643   6.651   7.676 -0.5740  0.3547  0.2000
  218PVA    H7937022   4.626   6.758   7.657 -2.0912  0.7778  3.3414
  218PVA    H8037023   4.544   6.604   7.685 -0.1764 -0.9142 -1.5733
  218PVA    C4137024   4.709   6.630   7.818 -0.3155  0.3029 -0.9238
  218PVA    H8137025   4.730   6.523   7.832  0.8423  0.5935 -0.2938
  218PVA    O1437026   4.826   6.699   7.796 -0.3066 -0.9427 -0.6419
  218PVA    H8237027   4.884   6.644   7.740  4.2648  1.0886  1.5253
  218PVA    C4237028   4.632   6.689   7.944  0.2378  0.6718 -0.2859
  218PVA    H8337029   4.568   6.608   7.980  1.2165  1.1104  2.7165
  218PVA    H8437030   4.708   6.709   8.021  2.5252 -1.0279 -1.9527
  218PVA    C4337031   4.526   6.799   7.921 -1.1013 -0.8707 -0.4959
  218PVA    H8537032   4.489   6.812   7.818 -3.0994  3.0938  0.5043
  218PVA    H8637033   4.566   6.895   7.956 -1.7768 -1.0278  0.7793
  218PVA    C4437034   4.397   6.794   8.003  0.4408 -0.8330 -0.2972
  218PVA    H8737035   4.327   6.729   7.948  1.2590 -1.3231 -0.7892
  218PVA    O1537036   4.429   6.750   0.035 -0.3621 -0.0540 -0.4975
  218PVA    H8837037   4.467   6.825   0.084  2.1459 -0.2478 -1.9909
  218PVA    C4537038   4.330   6.938   7.997  0.1170 -0.5289 -0.2072
  218PVA    H8937039   4.318   6.946   7.888  1.3755  0.0924 -0.3161
  218PVA    H9037040   4.392   7.014   8.047 -1.6767 -1.4961  3.7887
  218PVA    C4637041   4.183   6.946   8.064 -0.2263 -0.1546 -0.3927
  218PVA    H9137042   4.122   6.874   8.007 -0.1558 -2.1025  1.8657
  218PVA    H9237043   4.180   6.896   0.064 -1.8786  0.7017  0.0327
  218PVA    C4737044   4.118   7.088   8.081  0.8393 -0.1384 -0.7415
  218PVA    H9337045   4.132   7.148   7.990 -3.7608  3.1219  0.2906
  218PVA    O1637046   4.177   7.150   0.089 -0.5477  0.3118  0.0494
  218PVA    H9437047   4.219   7.082   0.145 -2.1533 -0.2635  0.5857
  218PVA    C4837048   3.959   7.075   8.094 -0.2855 -0.8121  0.3541
  218PVA    H9537049   3.904   7.155   8.042  0.4575  1.1246  2.4118
  218PVA    H9637050   3.933   6.972   8.067  0.1694 -1.5402  2.4743
  218PVA    C4937051   3.914   7.080   0.148  0.4412  0.9525  0.1370
  218PVA    H9737052   3.943   7.179   0.184  1.1808  0.1160  1.9461
  218PVA    H9837053   3.961   7.012   0.220  0.5347  2.3850  1.4697
  218PVA    C5037054   3.760   7.078   0.183 -0.0503 -0.9095  0.8291
  218PVA    H9937055   3.717   7.108   0.086  1.6501 -3.9306 -1.0493
  218PVA    O1737056   3.728   7.171   0.286 -0.2937 -0.2515  0.7922
  218PVA   H10037057   3.635   7.181   0.262 -0.2978 -3.0150 -0.8238
  218PVA    C5137058   3.717   6.937   0.221 -0.0794  0.0265  0.2867
  218PVA   H10137059   3.743   6.937   0.328  4.4965 -2.7801 -0.5192
  218PVA   H10237060   3.779   6.852   0.189  1.7599  1.5320 -0.3172
  219PVA     C137061   5.468   6.684   4.487 -0.1842 -0.2413 -0.1236
  219PVA     H137062   5.548   6.637   4.428 -0.1903  0.5680 -0.7842
  219PVA     H237063   5.512   6.768   4.541  3.4385 -2.0234  0.0567
  219PVA     C237064   5.423   6.584   4.595 -0.6841 -0.3438 -0.4852
  219PVA     H337065   5.518   6.563   4.646 -0.5577  1.3855  0.0728
  219PVA     O137066   5.374   6.461   4.553  0.3116 -0.8496 -0.7119
  219PVA     H437067   5.414   6.454   4.465  2.0783  1.6113 -0.2253
  219PVA     C337068   5.342   6.646   4.709  0.1163 -0.1672  0.8121
  219PVA     H537069   5.245   6.693   4.690  1.9576  3.9474  0.5752
  219PVA     H637070   5.397   6.734   4.744 -2.3606  1.2602  1.3807
  219PVA     C437071   5.306   6.547   4.821 -0.4997 -0.0944 -0.2889
  219PVA     H737072   5.293   6.445   4.783  5.7646 -0.9175 -1.2177
  219PVA     H837073   5.395   6.519   4.879 -0.6973 -1.7254 -0.7233
  219PVA     C537074   5.211   6.601   4.925  0.5833 -1.9544  0.6725
  219PVA     H937075   5.118   6.631   4.874  1.3108 -0.1844  0.2936
  219PVA     O237076   5.259   6.721   4.981  0.5580  0.4650  0.2895
  219PVA    H1037077   5.254   6.796   4.919  0.2396  1.0816  1.0481
  219PVA     C637078   5.164   6.503   5.029 -0.1845  0.0907 -1.5977
  219PVA    H1137079   5.130   6.414   4.974  0.6375 -0.6579 -0.9230
  219PVA    H1237080   5.239   6.457   5.094 -0.1796 -0.7541 -2.1835
  219PVA     C737081   5.023   6.529   5.097  1.1734  0.6137 -1.0541
  219PVA    H1337082   4.935   6.492   5.045 -1.5057 -1.3100  4.1270
  219PVA    H1437083   5.004   6.637   5.100  3.4594  1.1213 -2.0728
  219PVA     C837084   5.005   6.493   5.250 -1.0051 -1.5046 -0.5232
  219PVA    H1537085   5.086   6.555   5.290 -1.1986 -1.6600  0.1144
  219PVA     O337086   5.048   6.361   5.283  0.1257  0.0475  0.5592
  219PVA    H1637087   5.011   6.284   5.237  1.1037 -0.8989  1.3197
  219PVA     C937088   4.867   6.529   5.322 -0.2803  0.6716  0.1206
  219PVA    H1737089   4.855   6.638   5.317 -0.2730  0.6372 -0.7526
  219PVA    H1837090   4.782   6.482   5.271 -1.5353  1.4072  1.4816
  219PVA    C1037091   4.872   6.484   5.466  0.4871 -0.6088  0.1759
  219PVA    H1937092   4.897   6.377   5.464 -1.1495 -1.0130 -0.5978
  219PVA    H2037093   4.959   6.529   5.515 -0.6628  0.7382  1.0477
  219PVA    C1137094   4.752   6.504   5.558 -0.2952  1.2729  1.0168
  219PVA    H2137095   4.681   6.442   5.502  1.4788  0.5488 -0.5404
  219PVA     O437096   4.714   6.638   5.554 -0.4002  0.4016  0.1943
  219PVA    H2237097   4.660   6.655   5.633 -1.6886  3.0313 -1.1103
  219PVA    C1237098   4.771   6.467   5.714 -0.6894 -0.6504  0.8134
  219PVA    H2337099   4.851   6.392   5.724  0.3082  0.0972 -1.0675
  219PVA    H2437100   4.803   6.554   5.773 -2.7623  2.0411 -1.7308
  219PVA    C1337101   4.644   6.408   5.773  0.4259  0.1642 -1.2768
  219PVA    H2537102   4.549   6.410   5.718  0.0330 -0.1982 -0.6290
  219PVA    H2637103   4.619   6.465   5.863 -0.2930 -0.6682 -0.9356
  219PVA    C1437104   4.659   6.265   5.832  0.7585  0.4717  0.4193
  219PVA    H2737105   4.708   6.201   5.757 -0.4543 -2.1741  1.7410
  219PVA     O537106   4.728   6.275   5.944 -0.0543  0.0698 -0.6740
  219PVA    H2837107   4.663   6.276   6.016 -0.5753 -2.2334 -1.0256
  219PVA    C1537108   4.534   6.182   5.871  1.2570 -0.2906  0.1539
  219PVA    H2937109   4.492   6.199   5.971 -0.0188 -2.8864  0.1503
  219PVA    H3037110   4.458   6.217   5.800  1.5497  0.4452  0.1965
  219PVA    C1637111   4.548   6.020   5.846  0.5292 -0.5805 -0.1518
  219PVA    H3137112   4.600   6.012   5.750  0.0006  0.6363 -0.5595
  219PVA    H3237113   4.600   5.971   5.929 -0.8411 -0.4056  0.8450
  219PVA    C1737114   4.416   5.960   5.800 -0.7161 -0.7856 -0.2509
  219PVA    H3337115   4.361   5.954   5.895  1.3569 -2.5034  0.9332
  219PVA     O637116   4.349   6.036   5.690 -0.1977  0.6931 -1.2061
  219PVA    H3437117   4.278   5.973   5.669 -0.8151  2.5481 -5.8866
  219PVA    C1837118   4.415   5.805   5.777 -0.5709  0.6184 -1.2431
  219PVA    H3537119   4.431   5.774   5.881 -3.3184  2.5827 -0.1161
  219PVA    H3637120   4.310   5.774   5.778 -0.4000  0.0361 -0.5571
  219PVA    C1937121   4.501   5.747   5.658 -0.2523  0.3430  0.3359
  219PVA    H3737122   4.600   5.794   5.656 -1.8152  3.9637 -1.7395
  219PVA    H3837123   4.462   5.810   5.577 -0.1105 -1.1160 -0.9098
  219PVA    C2037124   4.497   5.598   5.624  0.8306 -0.1675  0.0445
  219PVA    H3937125   4.521   5.557   5.723 -1.9365  0.2241  0.9794
  219PVA     O737126   4.359   5.562   5.611 -0.6051  0.2263  0.0244
  219PVA    H4037127   4.334   5.506   5.687  1.3138 -1.1232 -0.2544
  219PVA    C2137128   4.604   5.547   5.514 -0.0671 -0.5353 -0.8579
  219PVA    H4137129   4.603   5.438   5.518  0.1666 -0.5817 -1.8729
  219PVA    H4237130   4.697   5.570   5.567 -0.2547 -2.8445  0.6257
  219PVA    C2237131   4.583   5.618   5.381 -1.0950  0.1381 -0.7501
  219PVA    H4337132   4.480   5.600   5.349 -0.9175  1.5294 -2.2338
  219PVA    H4437133   4.577   5.725   5.405 -1.0986  0.0653 -0.4235
  219PVA    C2337134   4.694   5.600   5.267 -0.9939 -0.5008 -1.0688
  219PVA    H4537135   4.716   5.497   5.237 -1.1861 -1.1294  0.8070
  219PVA     O837136   4.807   5.674   5.320 -0.6394 -0.4152  0.4462
  219PVA    H4637137   4.888   5.636   5.281 -0.2627  1.5299 -0.7962
  219PVA    C2437138   4.662   5.688   5.142 -0.4590 -1.0090 -0.8397
  219PVA    H4737139   4.600   5.623   5.079 -1.4049  0.2377 -1.2223
  219PVA    H4837140   4.602   5.775   5.169 -0.6196 -2.3637  4.1180
  219PVA    C2537141   4.785   5.720   5.052 -0.5321 -0.2650  1.9355
  219PVA    H4937142   4.879   5.665   5.065  1.0612  1.9564  0.5562
  219PVA    H5037143   4.820   5.820   5.080  0.4222 -0.1133  0.3652
  219PVA    C2637144   4.755   5.754   4.899  1.1659  0.5576  0.8556
  219PVA    H5137145   4.753   5.658   4.846 -2.0056  0.6842  0.5726
  219PVA     O937146   4.615   5.807   4.881 -0.0370  0.3769 -0.5190
  219PVA    H5237147   4.602   5.889   4.932 -2.0674  0.6435 -1.3462
  219PVA    C2737148   4.864   5.839   4.831  0.4131  0.4509 -0.0399
  219PVA    H5337149   4.959   5.784   4.823  1.1886  1.4827  1.5555
  219PVA    H5437150   4.893   5.922   4.896  1.3269 -1.8660  2.7449
  219PVA    C2837151   4.839   5.899   4.699  0.7058  0.2040 -0.2293
  219PVA    H5537152   4.820   5.820   4.625  1.9430  0.3254 -0.6940
  219PVA    H5637153   4.745   5.956   4.703 -1.0222 -2.3982 -1.2859
  219PVA    C2937154   4.959   5.986   4.643 -1.5600  0.3005  0.0471
  219PVA    H5737155   5.014   6.009   4.735 -0.0099  0.3618 -0.8681
  219PVA    O1037156   5.046   5.903   4.567 -0.1455 -0.2453 -0.0357
  219PVA    H5837157   4.994   5.905   4.485  2.3903 -3.6052 -2.0011
  219PVA    C3037158   4.934   6.125   4.574 -0.0827 -0.5138 -0.3422
  219PVA    H5937159   4.828   6.145   4.553  0.3286  2.8688  0.1825
  219PVA    H6037160   4.979   6.124   4.474  0.1264  0.8749 -0.2817
  219PVA    C3137161   4.988   6.244   4.655 -0.4128  0.2744 -0.3530
  219PVA    H6137162   5.098   6.245   4.660 -0.4105 -0.0667  3.6203
  219PVA    H6237163   4.957   6.236   4.760  0.9998  0.6116  0.1212
  219PVA    C3237164   4.917   6.372   4.608 -0.0378  0.1035 -0.0709
  219PVA    H6337165   4.809   6.352   4.605  0.1978 -1.2597 -0.3078
  219PVA    O1137166   4.967   6.397   4.475 -0.0214  0.0409  0.9493
  219PVA    H6437167   5.061   6.418   4.465  0.0409 -1.2557 -2.6763
  219PVA    C3337168   4.925   6.495   4.695  1.6631  0.2476 -1.2846
  219PVA    H6537169   5.030   6.517   4.718  2.3058 -2.5475 -1.2130
  219PVA    H6637170   4.873   6.473   4.788  1.4266  2.0800 -0.9423
  219PVA    C3437171   4.867   6.615   4.609  0.0397 -0.3732  1.0292
  219PVA    H6737172   4.950   6.649   4.546  1.5382 -1.8069  2.1445
  219PVA    H6837173   4.790   6.576   4.541 -0.4671  0.7081  0.9608
  219PVA    C3537174   4.809   6.742   4.676  0.1734  0.8932  0.8548
  219PVA    H6937175   4.705   6.718   4.703  1.1290 -1.7290  2.6236
  219PVA    O1237176   4.889   6.783   4.791 -0.0994  0.7086 -0.4121
  219PVA    H7037177   4.818   6.825   4.842  1.5526  1.3203  1.5404
  219PVA    C3637178   4.813   6.868   4.578  0.3520 -0.1947  0.4044
  219PVA    H7137179   4.727   6.840   4.515  2.9905 -0.1396 -3.5858
  219PVA    H7237180   4.892   6.869   4.502  0.2760  1.9801  0.2820
  219PVA    C3737181   4.782   7.007   4.647 -0.1953 -0.1075  0.8897
  219PVA    H7337182   4.692   6.987   4.707  0.6186  0.3685  2.3152
  219PVA    H7437183   4.838   7.039   4.736 -0.4408  0.1069  0.9713
  219PVA    C3837184   4.746   7.137   4.562 -0.2293 -0.1847  1.2712
  219PVA    H7537185   4.822   7.137   4.483 -2.9936 -2.9164 -1.6849
  219PVA    O1337186   4.621   7.115   4.490 -0.1330  1.2077  0.4960
  219PVA    H7637187   4.539   7.115   4.543 -0.4034  1.3671  0.0912
  219PVA    C3937188   4.751   7.277   4.619  0.4314  0.2019  0.6743
  219PVA    H7737189   4.856   7.285   4.650 -0.1780  2.8632  2.3900
  219PVA    H7837190   4.683   7.277   4.705  0.1770 -0.9024  0.4916
  219PVA    C4037191   4.730   7.391   4.514 -0.4936  0.2851  0.3005
  219PVA    H7937192   4.806   7.403   4.436  4.7044 -0.9955  4.5069
  219PVA    H8037193   4.641   7.363   4.458 -0.3503  1.5809 -0.6171
  219PVA    C4137194   4.740   7.541   4.566  0.2511 -0.0938 -0.3422
  219PVA    H8137195   4.695   7.571   4.661  3.1447 -1.2133  1.5015
  219PVA    O1437196   4.882   7.564   4.590 -0.6487  0.5387  0.7586
  219PVA    H8237197   4.927   7.603   4.513 -1.4021  1.9314  1.0118
  219PVA    C4237198   4.691   7.648   4.462 -0.8693  0.0061 -0.1188
  219PVA    H8337199   4.769   7.663   4.387  1.8512 -0.3313  2.4743
  219PVA    H8437200   4.604   7.609   4.407  0.6027  0.0262 -2.5905
  219PVA    C4337201   4.656   0.103   4.513  0.6243 -0.7651  0.4727
  219PVA    H8537202   4.578   0.111   4.590  2.7122 -0.3092  2.6969
  219PVA    H8637203   4.732   0.136   4.586 -1.5646  1.0350  2.0990
  219PVA    C4437204   4.627   0.214   4.400  0.4197  0.3287 -0.6783
  219PVA    H8737205   4.694   0.292   4.439 -0.3268  0.1296  1.1174
  219PVA    O1537206   4.658   0.177   4.270 -0.9331 -0.0701  0.1121
  219PVA    H8837207   4.715   0.098   4.273  2.8851  2.3338 -0.8634
  219PVA    C4537208   4.476   0.261   4.385 -0.9777 -0.0968  0.0747
  219PVA    H8937209   4.419   0.245   4.477  0.8862  0.9684  1.4861
  219PVA    H9037210   4.418   0.203   4.312  0.0603 -3.4762  1.7277
  219PVA    C4637211   4.468   0.409   4.343 -0.5528 -0.1521 -0.4010
  219PVA    H9137212   4.523   0.466   4.418  2.0175 -5.3160  2.1863
  219PVA    H9237213   4.532   0.421   4.254 -0.4290 -1.9209 -0.5977
  219PVA    C4737214   4.339   0.488   4.326 -0.4092 -1.0551 -0.0094
  219PVA    H9337215   4.261   0.443   4.263 -1.6665 -2.1838  2.2172
  219PVA    O1637216   4.259   0.499   4.449 -0.5279 -0.8050  0.7244
  219PVA    H9437217   4.172   0.533   4.424 -1.7726 -3.0172  1.7131
  219PVA    C4837218   4.373   0.634   4.270  1.1845  0.5608 -0.3820
  219PVA    H9537219   4.350   0.707   4.349 -1.1753 -0.1215 -0.3915
  219PVA    H9637220   4.482   0.647   4.260  1.3462  0.2750  0.7903
  219PVA    C4937221   4.279   0.679   4.149 -0.0738 -0.6699 -0.0462
  219PVA    H9737222   4.181   0.655   4.191  0.2856 -4.6681 -1.1412
  219PVA    H9837223   4.307   0.630   4.055  2.5100 -0.5591  0.6024
  219PVA    C5037224   4.288   0.828   4.104 -0.9109 -1.0490 -0.3045
  219PVA    H9937225   4.268   0.881   4.198  2.4439 -4.1406  2.4409
  219PVA    O1737226   4.195   0.853   4.003  0.0569 -0.1935  1.1105
  219PVA   H10037227   4.203   0.793   3.926 -1.4725 -1.5829  1.9629
  219PVA    C5137228   4.432   0.866   4.062  0.0106 -0.9262  0.1396
  219PVA   H10137229   4.510   0.865   4.140  1.3769  3.7360 -0.8479
  219PVA   H10237230   4.465   0.808   3.975 -1.7990 -0.1812 -1.0869
  220PVA     C137231   3.662   7.613   0.889 -0.7810 -0.8553 -0.5486
  220PVA     H137232   3.555   7.633   0.875 -0.7951 -2.2286 -3.3582
  220PVA     H237233   3.676   7.535   0.965  4.5380 -1.3133 -1.5636
  220PVA     C237234   3.732   0.061   0.942 -0.9134 -0.8087  1.9751
  220PVA     H337235   3.727   0.132   0.859  0.1764 -1.5675  1.2445
  220PVA     O137236   3.873   0.037   0.965 -0.0052 -0.8379 -0.0465
  220PVA     H437237   3.888   0.035   1.061 -1.9825 -1.7310  0.3069
  220PVA     C337238   3.667   0.129   1.074 -0.2153  0.6465 -0.5371
  220PVA     H537239   3.614   0.054   1.135  0.3661  0.5673 -0.1297
  220PVA     H637240   3.579   0.176   1.028 -0.8557 -0.3057 -0.3242
  220PVA     C437241   3.736   0.248   1.153  0.3251  0.5010  0.8885
  220PVA     H737242   3.812   0.220   1.227  0.7516  0.7945  0.5642
  220PVA     H837243   3.787   0.292   1.067 -0.8013 -3.0175 -1.8494
  220PVA     C537244   3.634   0.340   1.212  1.3120 -0.0313 -0.5396
  220PVA     H937245   3.569   0.383   1.135 -0.7611 -4.1065 -1.3975
  220PVA     O237246   3.541   0.270   1.288 -0.4385  0.3141 -0.1529
  220PVA    H1037247   3.496   0.333   1.347 -0.5967  0.4144 -0.3816
  220PVA     C637248   3.695   0.463   1.284 -0.4816  0.3016  0.3426
  220PVA    H1137249   3.730   0.426   1.381 -0.6058  2.7684  1.4098
  220PVA    H1237250   3.782   0.503   1.231 -0.4613 -0.1017  0.0679
  220PVA     C737251   3.602   0.573   1.338  1.0934 -0.3209 -1.0435
  220PVA    H1337252   3.528   0.524   1.403  1.4302 -1.4013 -1.4612
  220PVA    H1437253   3.555   0.631   1.257  2.3914  1.5370 -0.5190
  220PVA     C837254   3.656   0.676   1.443 -0.1467  0.8815  0.2163
  220PVA    H1537255   3.638   0.628   1.540 -2.6401  1.5148  0.1309
  220PVA     O337256   3.577   0.785   1.436  0.1675  0.7052 -0.1583
  220PVA    H1637257   3.578   0.856   1.502  2.3850 -0.8902  1.6800
  220PVA     C937258   3.806   0.735   1.438  0.6224  0.7799  0.1384
  220PVA    H1737259   3.807   0.796   1.347 -4.8121 -2.2373 -2.4007
  220PVA    H1837260   3.866   0.644   1.427  1.9996  1.4195  1.7658
  220PVA    C1037261   3.862   0.829   1.552 -0.1777  0.1462 -0.6845
  220PVA    H1937262   3.796   0.916   1.562  1.6223  1.4511  0.3313
  220PVA    H2037263   3.870   0.773   1.646 -1.3427  0.0342 -0.6399
  220PVA    C1137264   4.016   0.875   1.526 -0.1148  0.6879  0.3183
  220PVA    H2137265   4.071   0.790   1.484  0.2674  2.1118 -2.2784
  220PVA     O437266   4.020   0.990   1.428  0.4346  0.1987 -0.3879
  220PVA    H2237267   3.978   1.067   1.471 -0.0180 -0.5510  0.5564
  220PVA    C1237268   4.090   0.908   1.651 -0.2516  0.7480 -0.1016
  220PVA    H2337269   4.012   0.953   1.714  1.8867  1.5184  2.1358
  220PVA    H2437270   4.131   0.821   1.702 -0.4134 -0.1962 -1.5047
  220PVA    C1337271   4.214   1.016   1.652  0.2009 -0.3635  0.3265
  220PVA    H2537272   4.193   1.108   1.596  0.4231  0.3015  1.3075
  220PVA    H2637273   4.280   0.955   1.589  1.6936 -0.9585  2.3695
  220PVA    C1437274   4.280   1.057   1.787 -0.3471 -0.9210  0.1548
  220PVA    H2737275   4.382   1.095   1.773  0.5009 -1.9744  2.8619
  220PVA     O537276   4.194   1.155   1.856 -0.2844  0.1587  0.1030
  220PVA    H2837277   4.246   1.237   1.846  1.6263 -0.9689  0.3456
  220PVA    C1537278   4.290   0.951   1.913  0.0956 -0.3148 -0.3491
  220PVA    H2937279   4.331   0.859   1.869 -0.1562 -1.2517  1.2803
  220PVA    H3037280   4.189   0.947   1.954 -1.4540  4.7455 -2.7898
  220PVA    C1637281   4.374   0.987   2.028  0.0212 -0.2069 -0.4353
  220PVA    H3137282   4.467   0.971   1.973 -3.1150 -4.1090 -5.4337
  220PVA    H3237283   4.355   1.087   2.069 -2.1572 -0.3504 -0.9736
  220PVA    C1737284   4.360   0.903   2.151 -1.1231 -0.4470 -0.0399
  220PVA    H3337285   4.279   0.957   2.200  0.5152  1.3025  0.8859
  220PVA     O637286   4.335   0.770   2.133  0.5890  0.3463  0.3952
  220PVA    H3437287   4.283   0.771   2.051  1.7333  3.5499 -0.4311
  220PVA    C1837288   4.491   0.901   2.251  0.1719  0.0527 -0.0590
  220PVA    H3537289   4.576   0.877   2.186  1.1552 -0.0693  1.2367
  220PVA    H3637290   4.516   1.004   2.282 -1.0216 -0.5963  3.5112
  220PVA    C1937291   4.511   0.812   2.372  1.1671  0.3888 -0.1818
  220PVA    H3737292   4.410   0.817   2.414  1.3729 -1.4291  0.6520
  220PVA    H3837293   4.527   0.710   2.334  0.0341  0.2663 -0.3440
  220PVA    C2037294   4.609   0.861   2.482 -0.2020  0.0473 -0.4532
  220PVA    H3937295   4.708   0.873   2.438 -0.8544  2.8405 -1.3631
  220PVA     O737296   4.571   0.999   2.530  0.1592  0.9160 -0.3467
  220PVA    H4037297   4.483   1.013   2.491 -0.7762  0.6082  1.5289
  220PVA    C2137298   4.638   0.766   2.608  0.3687  0.9312  0.1211
  220PVA    H4137299   4.675   0.668   2.575 -2.8188 -0.6375  0.7715
  220PVA    H4237300   4.538   0.732   2.640 -0.3588  2.8646  0.0612
  220PVA    C2237301   4.709   0.818   2.740  0.7275 -0.8736 -0.1012
  220PVA    H4337302   4.790   0.889   2.721  0.6660 -1.0430 -1.0487
  220PVA    H4437303   4.634   0.882   2.788  2.2469 -0.0439  1.2703
  220PVA    C2337304   4.762   0.728   2.852 -0.8745  0.4806 -0.7316
  220PVA    H4537305   4.755   0.620   2.833 -1.5007  0.3915 -0.0294
  220PVA     O837306   4.898   0.767   2.873 -0.0057 -1.1906  0.0710
  220PVA    H4637307   4.888   0.843   2.934  0.6659 -2.8462  2.3988
  220PVA    C2437308   4.698   0.745   2.995  1.0430  1.3235  0.0275
  220PVA    H4737309   4.735   0.811   3.074 -1.3343  0.8252  1.6668
  220PVA    H4837310   4.590   0.762   2.990  0.8744  0.9897  1.9128
  220PVA    C2537311   4.704   0.621   3.084 -0.0531 -0.0550  0.4993
  220PVA    H4937312   4.810   0.615   3.111 -0.5916  1.8869  3.5322
  220PVA    H5037313   4.664   0.528   3.041 -1.2194  1.3117 -1.5597
  220PVA    C2637314   4.638   0.616   3.230 -0.9740 -0.0372 -0.3894
  220PVA    H5137315   4.661   0.709   3.284 -0.7150 -0.8073  0.8470
  220PVA     O937316   4.504   0.636   3.224 -0.4450  0.5911  0.3482
  220PVA    H5237317   4.485   0.555   3.174  3.3406  0.0923 -0.6156
  220PVA    C2737318   4.678   0.484   3.313  0.2191 -0.0366  0.8388
  220PVA    H5337319   4.774   0.444   3.279 -0.8865  0.7300 -3.8568
  220PVA    H5437320   4.621   0.394   3.289  0.1340  0.6727 -1.9438
  220PVA    C2837321   4.701   0.502   3.468 -0.9824  1.2144  0.8514
  220PVA    H5537322   4.711   0.611   3.474  0.7845  1.0057  4.2793
  220PVA    H5637323   4.605   0.477   3.516 -0.1416 -2.7043  0.8011
  220PVA    C2937324   4.829   0.428   3.511 -0.2341  0.4100 -1.5699
  220PVA    H5737325   4.911   0.492   3.477 -0.7744  2.0421  0.0430
  220PVA    O1037326   4.836   0.285   3.463  1.4172  0.7037  0.0084
  220PVA    H5837327   4.822   0.289   3.367  0.7335 -1.2123 -0.0206
  220PVA    C3037328   4.860   0.428   3.669 -0.5151 -0.2510  0.3806
  220PVA    H5937329   4.846   0.533   3.697 -0.1232  0.1055 -0.7335
  220PVA    H6037330   4.783   0.365   3.715  1.0354 -1.8960  0.8469
  220PVA    C3137331   5.015   0.387   3.706 -0.1358  0.2692 -0.3733
  220PVA    H6137332   5.079   0.458   3.652  0.8931  2.3182  3.2113
  220PVA    H6237333   5.030   0.289   3.659 -0.8265  0.8046 -1.7634
  220PVA    C3237334   5.068   0.395   3.860 -0.4003 -0.6103  0.2414
  220PVA    H6337335   5.085   0.503   3.868 -1.3974 -0.2386 -1.8105
  220PVA    O1137336   4.958   0.365   3.962 -0.0316 -0.6481  0.3426
  220PVA    H6437337   4.940   0.272   3.943 -1.4206 -0.4562  0.6256
  220PVA    C3337338   5.200   0.333   3.902 -0.4151  0.0074 -0.2832
  220PVA    H6537339   5.242   0.249   3.846  0.1066 -0.6345  1.0341
  220PVA    H6637340   5.279   0.402   3.870 -1.6349  1.2625 -0.7255
  220PVA    C3437341   5.234   0.297   4.053 -1.9113 -0.0529 -0.2199
  220PVA    H6737342   5.170   0.351   4.123 -0.0234  0.9571  0.7942
  220PVA    H6837343   5.214   0.192   4.080 -2.0402  0.2458  0.8828
  220PVA    C3537344   5.380   0.332   4.106  1.6485 -0.1540 -0.1766
  220PVA    H6937345   5.405   0.423   4.049  3.7364  0.0439  0.9446
  220PVA    O1237346   5.476   0.245   4.054  0.1609  0.1855 -0.4623
  220PVA    H7037347   5.507   0.180   4.119  0.8454  2.5666  1.7328
  220PVA    C3637348   5.415   0.344   4.260 -0.8534 -0.0252  0.4520
  220PVA    H7137349   5.354   0.422   4.307 -0.6500  1.2678 -1.3030
  220PVA    H7237350   5.388   0.251   4.311  0.6925 -0.6443  0.2008
  220PVA    C3737351   5.558   0.369   4.313 -0.8480  1.1111  0.1206
  220PVA    H7337352   5.632   0.338   4.238 -2.0654  0.3955 -0.8314
  220PVA    H7437353   5.593   0.312   4.400 -0.2223  3.4409  1.4849
  220PVA    C3837354   5.589   0.507   4.366  0.3391 -1.5672  0.6896
  220PVA    H7537355   5.503   0.574   4.358 -0.8215 -2.6104  3.2759
  220PVA    O1337356   5.618   0.501   4.503  0.0064 -0.0785  0.5650
  220PVA    H7637357   5.714   0.505   4.518  0.4575 -2.0917 -1.3531
  220PVA    C3937358   5.705   0.582   4.290  0.0445 -0.6748  0.2907
  220PVA    H7737359   5.693   0.549   4.186  0.4130  5.6144 -2.1783
  220PVA    H7837360   5.807   0.553   4.319 -0.2973  0.1590  2.5237
  220PVA    C4037361   5.694   0.736   4.259  0.2365 -0.3604  0.4009
  220PVA    H7937362   5.590   0.760   4.234 -1.1435 -4.0066  1.9451
  220PVA    H8037363   5.718   0.786   4.354 -0.2609  2.5169 -0.9012
  220PVA    C4137364   5.808   0.794   4.162  1.0236  0.1352 -0.3212
  220PVA    H8137365   5.880   0.856   4.217  0.7745  3.0984 -3.0030
  220PVA    O1437366   5.882   0.681   4.093 -0.3358 -0.0228 -0.3366
  220PVA    H8237367   5.955   0.731   4.051  0.8449  0.1447  1.7892
  220PVA    C4237368   5.759   0.889   4.043  0.8949 -0.8449  1.0490
  220PVA    H8337369   5.852   0.944   4.025  0.4110 -0.3459 -0.0777
  220PVA    H8437370   5.768   0.832   3.949 -0.7026  2.5186 -1.3689
  220PVA    C4337371   5.631   0.980   4.046 -1.0102  0.0338  0.6961
  220PVA    H8537372   5.616   1.059   4.121 -4.1202  2.6495 -2.2875
  220PVA    H8637373   5.557   0.904   4.071  1.2897 -2.8657 -0.7393
  220PVA    C4437374   5.588   1.049   3.911  1.4808 -0.6325  0.3446
  220PVA    H8737375   5.660   1.130   3.899 -2.2787  2.7285 -2.3647
  220PVA    O1537376   5.574   0.963   3.801 -0.0878 -0.5293  0.0911
  220PVA    H8837377   5.588   1.025   3.728  3.8779 -0.2262  0.9051
  220PVA    C4537378   5.442   1.110   3.927 -1.1322  0.2415  0.0577
  220PVA    H8937379   5.440   1.160   4.025 -0.7621 -0.4137  0.4070
  220PVA    H9037380   5.370   1.030   3.949 -0.8919 -0.1704 -0.6326
  220PVA    C4637381   5.392   1.196   3.804 -0.0244 -0.3571 -0.9935
  220PVA    H9137382   5.476   1.266   3.793 -0.7831  0.6299 -0.6701
  220PVA    H9237383   5.389   1.150   3.705 -4.2566  3.3690 -2.9486
  220PVA    C4737384   5.271   1.283   3.849  1.4659 -0.1620  0.9778
  220PVA    H9337385   5.239   1.272   3.954 -3.1658  3.4110  0.2597
  220PVA    O1637386   5.304   1.417   3.834 -0.1187  0.8994  0.3269
  220PVA    H9437387   5.381   1.439   3.889  1.3141  1.6072 -1.8575
  220PVA    C4837388   5.135   1.265   3.773 -0.2182  0.1185  0.1505
  220PVA    H9537389   5.141   1.315   3.676  0.4531 -2.7608 -1.4235
  220PVA    H9637390   5.117   1.162   3.739 -1.3348  0.6624 -0.9969
  220PVA    C4937391   5.011   1.316   3.854 -0.4296  0.2201  0.0692
  220PVA    H9737392   4.968   1.409   3.816  0.6320  1.9032  2.7113
  220PVA    H9837393   5.035   1.342   3.958  3.6237 -0.0583 -0.6520
  220PVA    C5037394   4.904   1.201   3.890  0.0578  0.2898  0.4661
  220PVA    H9937395   4.964   1.129   3.947  0.1420  0.1226  0.1674
  220PVA    O1737396   4.846   1.144   3.772 -0.2325 -0.2364  1.0003
  220PVA   H10037397   4.899   1.180   3.699 -0.2698  0.5358  1.3437
  220PVA    C5137398   4.786   1.240   3.990 -0.3929  0.8238 -0.0471
  220PVA   H10137399   4.787   1.350   3.989  0.7346  0.9360  3.0954
  220PVA   H10237400   4.834   1.219   4.086  0.4777  3.4708  0.1844
  221PVA     C137401   3.800   7.601   0.383 -0.3167 -0.0899 -0.0159
  221PVA     H137402   3.728   7.559   0.312  0.2536  1.7430 -1.7524
  221PVA     H237403   3.747   0.013   0.382 -2.8855 -1.4180 -0.2537
  221PVA     C237404   3.938   7.631   0.317  0.1109 -0.8563 -0.3964
  221PVA     H337405   3.968   0.044   0.357  1.4807 -1.8004  0.9940
  221PVA     O137406   4.042   7.539   0.350  1.6777 -0.1809 -1.2471
  221PVA     H437407   4.129   7.583   0.343  0.8990  2.9318  3.5783
  221PVA     C337408   3.927   7.653   0.167 -0.1699 -0.2417  0.6527
  221PVA     H537409   3.883   7.581   0.096  1.6409 -0.3596 -0.3907
  221PVA     H637410   4.025   0.005   0.136 -1.0530  1.1224 -0.6255
  221PVA     C437411   3.858   0.101   0.127 -0.5188  1.4202  0.0782
  221PVA     H737412   3.752   0.092   0.152 -0.5570 -2.6954 -0.9000
  221PVA     H837413   3.888   0.175   0.203 -2.0345  0.0446  2.1157
  221PVA     C537414   3.874   0.139   8.072  1.2674 -0.8115 -0.3535
  221PVA     H937415   3.827   0.065   8.007  2.5916 -1.4084 -0.6768
  221PVA     O237416   4.002   0.158   8.031 -0.3552  1.0512 -0.5144
  221PVA    H1037417   3.970   0.214   7.959 -3.1829  1.0742  0.6249
  221PVA     C637418   3.795   0.263   8.032  0.0744  0.0409 -0.5215
  221PVA    H1137419   3.739   0.287   0.026 -0.8210 -0.2284 -0.9888
  221PVA    H1237420   3.838   0.363   8.018  0.7379 -0.5210 -3.0780
  221PVA     C737421   3.692   0.250   7.914  0.5463 -0.7137 -0.7492
  221PVA    H1337422   3.633   0.165   7.948 -0.4250  0.3662  0.3693
  221PVA    H1437423   3.756   0.219   7.830 -0.5013 -2.1599 -1.0331
  221PVA     C837424   3.611   0.377   7.889  0.3613 -0.0322 -0.8048
  221PVA    H1537425   3.662   0.473   7.906 -2.5323  1.4363  0.3075
  221PVA     O337426   3.506   0.370   7.982 -0.1008  0.3941 -0.1378
  221PVA    H1637427   3.451   0.291   7.967  1.0890 -0.8528  1.7144
  221PVA     C937428   3.561   0.360   7.757  0.6187  0.0592 -0.1540
  221PVA    H1737429   3.503   0.267   7.763 -1.3729  1.1075 -1.9997
  221PVA    H1837430   3.643   0.357   7.685  0.7451 -0.9029  0.0133
  221PVA    C1037431   3.462   0.470   7.723  1.5455  0.2956  1.1344
  221PVA    H1937432   3.371   0.449   7.780  1.3736  0.8126  1.0520
  221PVA    H2037433   3.498   0.571   7.747  0.0540  2.5188 -4.3889
  221PVA    C1137434   3.409   0.476   7.574  0.1111 -0.5627  0.2924
  221PVA    H2137435   3.360   0.383   7.542 -0.4190  0.3034 -1.5377
  221PVA     O437436   3.515   0.483   7.478  0.0469 -0.4672  0.2759
  221PVA    H2237437   3.569   0.405   7.501 -2.5030 -4.0919 -4.1123
  221PVA    C1237438   3.309   0.595   7.558 -0.0223  0.6904  0.5006
  221PVA    H2337439   3.218   0.540   7.585  2.0340 -4.4411 -1.8243
  221PVA    H2437440   3.344   0.669   7.632 -0.2932 -0.0783  1.4085
  221PVA    C1337441   3.271   0.650   7.417  0.3618  0.0197 -0.1774
  221PVA    H2537442   3.264   0.552   7.368  3.2619 -0.7880  0.8523
  221PVA    H2637443   3.356   0.709   7.381  0.9021 -1.9255 -2.2727
  221PVA    C1437444   3.130   0.717   7.400 -0.2048  0.0211  0.4171
  221PVA    H2737445   3.053   0.671   7.463  0.1872  3.9820  4.3018
  221PVA     O537446   3.135   0.842   7.448 -0.0365  0.1170  0.3382
  221PVA    H2837447   3.112   0.912   7.384  0.2914 -0.8316 -0.8487
  221PVA    C1537448   3.071   0.712   7.252  0.4998  0.1587 -0.0567
  221PVA    H2937449   3.039   0.610   7.230  1.1614 -0.1838  0.5373
  221PVA    H3037450   3.132   0.745   7.168 -0.6112 -0.4424 -1.1391
  221PVA    C1637451   2.942   0.801   7.232  0.0036  0.5251  0.2592
  221PVA    H3137452   2.877   0.800   7.321 -1.3315  2.5715 -0.6246
  221PVA    H3237453   2.877   0.759   7.155  1.7079  0.8070 -1.3938
  221PVA    C1737454   2.969   0.951   7.192  0.3108 -0.0554  0.4300
  221PVA    H3337455   3.038   0.948   7.107 -0.0828 -0.6812  0.1190
  221PVA     O637456   3.001   1.033   7.311 -0.0238 -0.1802 -0.2740
  221PVA    H3437457   2.936   1.099   7.342  0.7680 -0.2664  1.7651
  221PVA    C1837458   2.849   1.017   7.125 -0.2731  0.2495 -0.2334
  221PVA    H3537459   2.813   0.962   7.037  1.2951 -2.7311  0.8320
  221PVA    H3637460   2.765   1.006   7.194 -0.3510 -3.9869 -0.7267
  221PVA    C1937461   2.863   1.156   7.070  0.3192 -0.4544 -0.4615
  221PVA    H3737462   2.926   1.151   6.981  2.4421  3.1231  0.6151
  221PVA    H3837463   2.925   1.213   7.141 -0.2457 -1.9092  1.2958
  221PVA    C2037464   2.736   1.242   7.035  1.1924  0.9079  0.0204
  221PVA    H3937465   2.685   1.173   6.966  2.9533 -2.9389  2.1976
  221PVA     O737466   2.656   1.262   7.152 -0.1069 -0.2802  0.7360
  221PVA    H4037467   2.603   1.342   7.134  2.2374  1.3723  0.7530
  221PVA    C2137468   2.764   1.385   6.976  0.1278  0.3934  0.9837
  221PVA    H4137469   2.812   1.378   6.877 -5.6549  0.9553 -2.3274
  221PVA    H4237470   2.817   1.449   7.048 -0.3612 -0.8478  2.5003
  221PVA    C2237471   2.641   1.466   6.939  0.2836 -0.2418 -0.6808
  221PVA    H4337472   2.636   1.518   6.843  0.6110  0.1765 -0.4772
  221PVA    H4437473   2.558   1.399   6.915  0.7161 -0.5614 -1.3138
  221PVA    C2337474   2.589   1.562   7.047 -0.1945  0.7491 -1.1380
  221PVA    H4537475   2.685   1.603   7.081  1.9855 -1.8921 -3.5895
  221PVA     O837476   2.507   1.501   7.132 -0.0825  0.0027 -0.1341
  221PVA    H4637477   2.473   1.558   7.203 -0.9006 -0.6894  0.0436
  221PVA    C2437478   2.502   1.680   6.985  0.8075 -1.0182 -0.6360
  221PVA    H4737479   2.440   1.636   6.907  1.5709 -2.2956 -0.5519
  221PVA    H4837480   2.579   1.737   6.931  2.3586 -1.6364  0.8308
  221PVA    C2537481   2.428   1.775   7.088  0.4845  0.1738 -0.3029
  221PVA    H4937482   2.470   1.779   7.189  0.4390 -0.5883 -0.2429
  221PVA    H5037483   2.331   1.728   7.110  0.6659 -0.8567 -1.5660
  221PVA    C2637484   2.383   1.922   7.033  0.0332  0.3421 -0.6270
  221PVA    H5137485   2.363   1.919   6.925  0.3303  4.7660 -0.9910
  221PVA     O937486   2.493   2.002   7.061  0.0864  0.0401 -0.1625
  221PVA    H5237487   2.468   2.045   7.145  0.7122 -1.4284  0.8170
  221PVA    C2737488   2.257   1.989   7.080  0.2185  0.8007 -1.8311
  221PVA    H5337489   2.286   2.055   7.163  4.4522 -1.0407 -1.5994
  221PVA    H5437490   2.196   1.910   7.125  1.7444  0.3773 -0.3937
  221PVA    C2837491   2.159   2.070   6.994 -0.0118 -1.7863 -0.4581
  221PVA    H5537492   2.195   2.173   6.984 -3.2972 -0.2776  1.4101
  221PVA    H5637493   2.146   2.019   6.898 -0.4290 -4.1579  0.7702
  221PVA    C2937494   2.012   2.093   7.030  0.4007  0.5848 -0.9778
  221PVA    H5737495   1.991   2.179   6.966  3.2483  2.1970  0.0820
  221PVA    O1037496   1.998   2.146   7.160  0.1458 -0.5006  0.1385
  221PVA    H5837497   1.950   2.229   7.143  0.1581 -0.5777 -0.2691
  221PVA    C3037498   1.900   1.988   6.994  0.3609 -0.1676 -0.5171
  221PVA    H5937499   1.943   1.919   6.920  1.1626 -0.0703 -0.1600
  221PVA    H6037500   1.873   1.935   7.086 -0.4453  4.2797  2.0928
  221PVA    C3137501   1.775   2.041   6.914  0.4719 -0.0552  0.2649
  221PVA    H6137502   1.781   2.134   6.855 -0.8945  1.8368  2.8915
  221PVA    H6237503   1.689   2.063   6.979 -0.4116 -3.8103  0.5962
  221PVA    C3237504   1.710   1.932   6.820  0.5920  0.2761 -0.6345
  221PVA    H6337505   1.789   1.862   6.791 -1.4310 -1.2000 -3.0206
  221PVA    O1137506   1.613   1.862   6.893 -0.5596  0.1826  1.2026
  221PVA    H6437507   1.547   1.850   6.823 -2.3768  0.2610  2.8208
  221PVA    C3337508   1.640   1.979   6.690 -1.0744  0.2830 -0.0642
  221PVA    H6537509   1.716   2.028   6.628  0.9261 -0.8033  1.4289
  221PVA    H6637510   1.564   2.053   6.719 -0.8059  1.4690 -2.1754
  221PVA    C3437511   1.564   1.863   6.602  0.3114 -1.1990  0.0658
  221PVA    H6737512   1.630   1.777   6.583  2.2885  0.1691  0.3800
  221PVA    H6837513   1.485   1.817   6.662 -2.3729  2.7431 -0.0573
  221PVA    C3537514   1.485   1.909   6.482  0.6782  0.7430  1.6791
  221PVA    H6937515   1.421   1.996   6.500 -1.8892 -0.5309 -0.6861
  221PVA    O1237516   1.575   1.949   6.383  0.2388 -0.7580 -0.4500
  221PVA    H7037517   1.605   1.869   6.338  0.6701  0.6511 -2.8786
  221PVA    C3637518   1.404   1.810   6.400  0.6415  0.0778 -0.1900
  221PVA    H7137519   1.480   1.745   6.354 -0.6614 -0.3801 -1.7740
  221PVA    H7237520   1.335   1.752   6.463 -0.3292 -0.7325 -1.9138
  221PVA    C3737521   1.311   1.874   6.294 -0.8107  0.5357  0.4722
  221PVA    H7337522   1.237   1.925   6.357  2.1246  2.3826  2.6944
  221PVA    H7437523   1.367   1.947   6.234  2.4217 -1.8716  0.2966
  221PVA    C3837524   1.233   1.787   6.197  1.2355 -0.3417  0.3423
  221PVA    H7537525   1.302   1.720   6.144  0.7772  0.5375 -1.4333
  221PVA    O1337526   1.148   1.694   6.271 -0.2023  0.8560  0.2375
  221PVA    H7637527   1.053   1.709   6.257 -0.3771 -1.2966 -1.4370
  221PVA    C3937528   1.135   1.858   6.097 -0.1603 -0.2905 -0.7722
  221PVA    H7737529   1.066   1.923   6.153  4.1851  2.7233  1.6897
  221PVA    H7837530   1.186   1.927   6.028 -1.6771  1.0068 -0.6787
  221PVA    C4037531   1.043   1.761   6.033  0.0961  0.0019 -0.2868
  221PVA    H7937532   0.984   1.700   6.103 -1.4741  0.0646 -1.5066
  221PVA    H8037533   1.103   1.681   5.987 -3.6044 -2.5776 -1.0367
  221PVA    C4137534   0.944   1.813   5.917  0.1522 -0.3475 -1.4670
  221PVA    H8137535   0.853   1.850   5.965  2.6138 -0.3558  3.9571
  221PVA    O1437536   1.016   1.898   5.832  0.2532 -1.0692 -0.1206
  221PVA    H8237537   1.051   1.969   5.889 -2.8202 -0.3758  1.1217
  221PVA    C4237538   0.897   1.686   5.846  1.1201  0.2486 -1.4412
  221PVA    H8337539   0.855   1.730   5.754  3.9991 -3.0325 -4.6552
  221PVA    H8437540   0.984   1.625   5.819  1.2711  0.4210 -1.3364
  221PVA    C4337541   0.790   1.606   5.934 -0.7899  0.2525  0.0911
  221PVA    H8537542   0.736   1.674   6.002 -3.0771 -0.0618 -1.3187
  221PVA    H8637543   0.836   1.529   5.996  3.4699  2.7663  0.4128
  221PVA    C4437544   0.696   1.532   5.849  0.3547 -0.2661 -0.4735
  221PVA    H8737545   0.753   1.443   5.820  0.1510 -1.0605  1.4227
  221PVA    O1537546   0.632   1.606   5.741 -0.0323  0.7936 -0.8087
  221PVA    H8837547   0.569   1.548   5.695  3.9860 -1.0017 -4.8424
  221PVA    C4537548   0.584   1.476   5.929 -0.3855  0.4999 -0.2061
  221PVA    H8937549   0.556   1.547   6.008 -1.0086 -2.6398  2.6463
  221PVA    H9037550   0.630   1.403   5.997 -0.3724  1.3730  0.7548
  221PVA    C4637551   0.469   1.394   5.871  0.5126  0.9236 -0.2105
  221PVA    H9137552   0.407   1.475   5.831 -0.9886  2.7905  5.0633
  221PVA    H9237553   0.498   1.325   5.791 -3.6155  0.1745 -1.3022
  221PVA    C4737554   0.397   1.307   5.973 -0.4406  0.7817  0.6103
  221PVA    H9337555   0.454   1.215   5.990  0.4979  1.1932 -0.2611
  221PVA    O1637556   0.390   1.371   6.090 -0.0787 -0.4238 -0.0288
  221PVA    H9437557   0.352   1.451   6.049 -0.3008 -0.8304 -0.6351
  221PVA    C4837558   0.250   1.277   5.946 -0.5663 -0.4876  0.0543
  221PVA    H9537559   0.188   1.365   5.965 -2.2590 -1.5488 -0.3517
  221PVA    H9637560   0.230   1.195   6.017  1.8803  0.1857  1.6347
  221PVA    C4937561   0.209   1.243   5.795 -1.0560  0.0985 -0.0972
  221PVA    H9737562   0.284   1.171   5.760  0.0235  0.4313  1.4358
  221PVA    H9837563   0.229   1.333   5.734 -1.6297  1.6467  1.8751
  221PVA    C5037564   0.061   1.206   5.793 -0.4531 -0.2608 -0.2921
  221PVA    H9937565   0.048   1.117   5.856 -3.2285  2.2689  3.0773
  221PVA    O1737566   7.749   1.309   5.855 -0.6115 -0.3264  0.1150
  221PVA   H10037567   7.699   1.363   5.792  1.3319  4.1939  1.9972
  221PVA    C5137568   7.755   1.190   5.649  0.5697 -0.7531  0.1028
  221PVA   H10137569   7.737   1.292   5.615 -1.1990 -1.6108 -1.7375
  221PVA   H10237570   7.653   1.155   5.667 -0.1277  1.4319  0.6374
  222PVA     C137571   4.085   1.744   3.672  0.1749 -0.0506  1.0046
  222PVA     H137572   3.985   1.737   3.627  0.6123  1.8563 -0.3703
  222PVA     H237573   4.066   1.807   3.760  1.8980  1.2633  0.4824
  222PVA     C237574   4.178   1.816   3.574  1.0509  0.0285  0.6297
  222PVA     H337575   4.274   1.764   3.582  0.2470 -1.7609 -0.6182
  222PVA     O137576   4.131   1.802   3.435 -1.0387 -1.0369 -0.2939
  222PVA     H437577   4.195   1.857   3.387  0.6213 -4.1202 -1.9796
  222PVA     C337578   4.197   1.960   3.617 -0.5491 -0.1507  0.8436
  222PVA     H537579   4.245   1.962   3.716  1.5698  0.2543 -0.1271
  222PVA     H637580   4.103   2.017   3.624  0.2934  1.4564 -0.2686
  222PVA     C437581   4.276   2.045   3.508 -0.1781 -0.2324 -0.7937
  222PVA     H737582   4.210   2.057   3.421 -2.6691  1.6181  1.1757
  222PVA     H837583   4.359   1.982   3.475  1.7337  1.6372  0.2144
  222PVA     C537584   4.315   2.184   3.559  0.2137 -0.2888 -0.6837
  222PVA     H937585   4.236   2.221   3.625  1.2052  2.6494 -1.0149
  222PVA     O237586   4.311   2.279   3.449  0.3137 -0.7513 -0.4315
  222PVA    H1037587   4.384   2.265   3.386 -1.0763 -3.7995 -1.5308
  222PVA     C637588   4.449   2.216   3.640  0.1626  0.1075 -0.0504
  222PVA    H1137589   4.482   2.320   3.629  1.7588 -0.0708  2.3005
  222PVA    H1237590   4.522   2.158   3.582  0.3879 -0.0380  0.3720
  222PVA     C737591   4.448   2.184   3.787 -0.6050 -1.0409 -0.1970
  222PVA    H1337592   4.454   2.076   3.809 -1.5129 -1.3275 -1.2713
  222PVA    H1437593   4.353   2.222   3.825 -0.7244 -0.2068 -1.3049
  222PVA     C837594   4.568   2.250   3.870 -0.8824  0.1204  0.8948
  222PVA    H1537595   4.661   2.231   3.814 -0.3925  3.3151  0.4577
  222PVA     O337596   4.577   2.389   3.871  0.6677 -0.2804 -0.1706
  222PVA    H1637597   4.516   2.436   3.930  2.8056  4.0875 -1.0009
  222PVA     C937598   4.580   2.205   4.023 -0.0196 -0.6851  1.0681
  222PVA    H1737599   4.504   2.241   4.094 -1.8157 -0.2905 -0.9766
  222PVA    H1837600   4.556   2.098   4.021  0.9043 -0.9878  3.2508
  222PVA    C1037601   4.713   2.218   4.096 -0.7446 -1.1019  0.3483
  222PVA    H1937602   4.751   2.317   4.067 -0.1914 -0.9817  1.4075
  222PVA    H2037603   4.791   2.151   4.057  1.4218  0.9436  0.8589
  222PVA    C1137604   4.700   2.194   4.246 -0.3330 -0.1408  0.6867
  222PVA    H2137605   4.612   2.242   4.290 -0.4458 -1.9777  2.6250
  222PVA     O437606   4.699   2.054   4.270 -0.2592 -0.1012  0.5233
  222PVA    H2237607   4.702   2.055   4.368  2.2539  1.7969  0.5415
  222PVA    C1237608   4.837   2.226   4.321  0.0991 -0.8922 -0.4899
  222PVA    H2337609   4.827   2.184   4.421  2.4542 -1.5458 -0.4790
  222PVA    H2437610   4.932   2.182   4.288  0.7046 -0.1953  0.2848
  222PVA    C1337611   4.863   2.376   4.334 -0.0353 -0.2730 -0.4080
  222PVA    H2537612   4.777   2.423   4.385 -0.8450 -0.0645 -1.9132
  222PVA    H2637613   4.865   2.425   4.236 -3.9088  1.4465  0.1656
  222PVA    C1437614   4.994   2.433   4.407 -0.4570 -0.7027 -0.0557
  222PVA    H2737615   5.069   2.404   4.332 -0.6569 -0.7293 -0.2501
  222PVA     O537616   5.013   2.348   4.523  0.6991  0.6381 -0.2419
  222PVA    H2837617   5.108   2.348   4.545  1.2386 -2.6801 -1.9391
  222PVA    C1537618   4.990   2.584   4.441  0.2947 -0.1546  1.3521
  222PVA    H2937619   4.951   2.619   4.344 -0.2487  1.1472  2.0012
  222PVA    H3037620   4.908   2.589   4.513  1.8056 -0.7625  3.1791
  222PVA    C1637621   5.125   2.651   4.498  0.3620 -0.1731 -0.2826
  222PVA    H3137622   5.127   2.639   4.607 -1.1472 -5.1548 -0.5666
  222PVA    H3237623   5.200   2.580   4.461 -0.9815 -0.9713 -1.5638
  222PVA    C1737624   5.163   2.791   4.443 -0.3164 -1.1174 -0.1677
  222PVA    H3337625   5.108   2.875   4.485  4.2881  0.5802  3.3380
  222PVA     O637626   5.147   2.798   4.299 -0.1944  0.2727 -0.5641
  222PVA    H3437627   5.190   2.884   4.282  0.7292  0.7401  3.2421
  222PVA    C1837628   5.324   2.823   4.460  0.2735 -0.0038 -1.0234
  222PVA    H3537629   5.381   2.756   4.394 -1.7798 -2.7677 -0.2153
  222PVA    H3637630   5.373   2.815   4.558  1.8389 -3.0887 -1.9191
  222PVA    C1937631   5.381   2.965   4.422 -0.4642 -0.2310  0.2039
  222PVA    H3737632   5.296   3.034   4.434  0.4379  1.3621 -1.8903
  222PVA    H3837633   5.391   2.960   4.313  1.8119  2.3757  0.1888
  222PVA    C2037634   5.522   3.020   4.487  1.2179  0.8490 -0.4181
  222PVA    H3937635   5.524   3.030   4.597 -1.5657  2.6865 -0.4079
  222PVA     O737636   5.607   2.908   4.454  0.9144  0.7113 -0.1296
  222PVA    H4037637   5.680   2.941   4.399 -0.6289  2.7515 -1.0842
  222PVA    C2137638   5.570   3.144   4.420 -0.1153 -0.2792 -0.4739
  222PVA    H4137639   5.502   3.230   4.417  1.0052  0.6092 -0.8418
  222PVA    H4237640   5.574   3.113   4.315 -1.8936 -2.0281 -0.0848
  222PVA    C2237641   5.697   3.217   4.479 -0.5466  0.2878  0.2288
  222PVA    H4337642   5.653   3.277   4.560 -0.0450  0.1305  0.6183
  222PVA    H4437643   5.760   3.142   4.529 -1.3435 -2.4201 -2.5103
  222PVA    C2337644   5.781   3.305   4.380 -0.5170  1.1615 -0.3028
  222PVA    H4537645   5.830   3.226   4.322 -0.1275  3.2784 -3.0549
  222PVA     O837646   5.717   3.389   4.286 -0.0735  0.3281  0.3325
  222PVA    H4637647   5.726   3.340   4.203  2.1616  0.2905  0.5418
  222PVA    C2437648   5.884   3.403   4.450 -0.0200 -0.4289  0.1308
  222PVA    H4737649   5.917   3.484   4.384  2.6356  0.6058  2.5180
  222PVA    H4837650   5.852   3.456   4.540 -0.9293  0.1894 -0.5339
  222PVA    C2537651   6.010   3.325   4.489  0.7845  1.2149  1.0023
  222PVA    H4937652   6.063   3.285   4.401  0.1614  0.6133  0.8944
  222PVA    H5037653   5.980   3.238   4.549  0.4673  0.0771 -0.7113
  222PVA    C2637654   6.115   3.414   4.547 -0.0721  0.3130 -0.5681
  222PVA    H5137655   6.111   3.495   4.473  0.0443 -0.4376 -1.4200
  222PVA     O937656   6.095   3.447   4.688  0.5600 -0.6058  0.8210
  222PVA    H5237657   6.116   3.542   4.691 -1.6574 -0.0018 -0.5215
  222PVA    C2737658   6.269   3.382   4.528  0.7901 -0.1256  0.7326
  222PVA    H5337659   6.326   3.454   4.587 -1.1223  2.2376 -0.1290
  222PVA    H5437660   6.297   3.382   4.422  0.4674 -1.2693  0.6277
  222PVA    C2837661   6.304   3.241   4.577  0.2262  0.3595 -1.0388
  222PVA    H5537662   6.298   3.242   4.686 -2.8878 -2.4572 -1.0283
  222PVA    H5637663   6.242   3.159   4.539 -1.2944 -0.6483  3.0941
  222PVA    C2937664   6.441   3.206   4.524 -0.4076  0.4742  0.3422
  222PVA    H5737665   6.523   3.279   4.534 -0.4684  0.9400 -2.0675
  222PVA    O1037666   6.443   3.158   4.387 -0.7297  0.0032 -0.3006
  222PVA    H5837667   6.461   3.231   4.325 -2.1202 -0.6981 -1.6024
  222PVA    C3037668   6.496   3.097   4.620 -0.0240  0.1489 -1.0786
  222PVA    H5937669   6.594   3.071   4.578  1.0106  4.0915 -1.5196
  222PVA    H6037670   6.517   3.151   4.713 -0.9588 -1.2454 -0.0234
  222PVA    C3137671   6.409   2.966   4.642 -0.6084 -0.9068  0.2962
  222PVA    H6137672   6.304   2.999   4.653  0.1612  2.1121 -0.4036
  222PVA    H6237673   6.446   2.948   4.744  3.7322  1.1252 -0.7122
  222PVA    C3237674   6.426   2.845   4.554  0.3058  0.0710  0.3116
  222PVA    H6337675   6.376   2.757   4.597  1.1203 -1.0039 -0.8615
  222PVA    O1137676   6.377   2.868   4.421 -0.5402  0.1031 -0.4707
  222PVA    H6437677   6.391   2.959   4.392  1.9886  0.4492  1.4562
  222PVA    C3337678   6.576   2.798   4.555 -0.7348 -0.8759 -0.7869
  222PVA    H6537679   6.615   2.764   4.652  0.4503 -1.4205 -1.4345
  222PVA    H6637680   6.642   2.883   4.531  4.2085 -3.5546  1.7501
  222PVA    C3437681   6.618   2.689   4.452  0.9404 -0.1336  0.4511
  222PVA    H6737682   6.539   2.631   4.403  1.4199  0.5594 -1.2371
  222PVA    H6837683   6.657   2.747   4.367  2.4205 -0.7987  0.6467
  222PVA    C3537684   6.733   2.591   4.482 -1.2397  0.3664 -0.8493
  222PVA    H6937685   6.827   2.648   4.489 -2.5228  2.5367 -0.4230
  222PVA    O1237686   6.756   2.516   4.358 -0.7930  0.2334  0.5167
  222PVA    H7037687   6.834   2.548   4.310 -3.0205  1.1204 -2.8086
  222PVA    C3637688   6.720   2.502   4.607 -0.1071 -0.3767 -0.4480
  222PVA    H7137689   6.735   2.572   4.690  4.7652 -0.1296 -1.2633
  222PVA    H7237690   6.625   2.454   4.634  0.2275  0.4534  2.5081
  222PVA    C3737691   6.843   2.412   4.619  0.1514  0.3900 -0.4620
  222PVA    H7337692   6.926   2.460   4.566 -0.9801 -0.2073 -2.9445
  222PVA    H7437693   6.823   2.325   4.555 -2.0520 -1.9488  3.0649
  222PVA    C3837694   6.878   2.372   4.767 -0.0015 -0.3558 -0.4156
  222PVA    H7537695   6.932   2.456   4.813  0.7064  0.2623 -2.3003
  222PVA    O1337696   6.755   2.330   4.826 -0.1828  0.0714 -0.6759
  222PVA    H7637697   6.700   2.291   4.755  1.6597 -0.2982 -1.9717
  222PVA    C3937698   6.985   2.258   4.783  0.9045 -0.2345 -0.1677
  222PVA    H7737699   7.028   2.273   4.883 -1.6952  5.1534  0.5060
  222PVA    H7837700   7.077   2.284   4.730  0.4215  1.1583 -0.3581
  222PVA    C4037701   6.946   2.109   4.731 -0.9428  0.5017 -0.4770
  222PVA    H7937702   6.883   2.047   4.795 -1.6722  0.5809 -1.1006
  222PVA    H8037703   6.884   2.124   4.642 -4.3258  2.1163  1.9458
  222PVA    C4137704   7.066   2.003   4.718 -0.2741 -0.2122 -0.3610
  222PVA    H8137705   7.106   2.019   4.617 -2.5791  2.8163 -0.9290
  222PVA    O1437706   7.149   2.015   4.835 -0.4006  0.6654  0.3728
  222PVA    H8237707   7.084   2.021   4.907 -2.6597  0.6349 -1.5538
  222PVA    C4237708   7.012   1.856   4.717 -0.3026 -0.3773 -0.3840
  222PVA    H8337709   6.934   1.840   4.793  0.6906  2.2058  1.3206
  222PVA    H8437710   6.970   1.837   4.617  0.3736  0.6716 -0.8863
  222PVA    C4337711   7.116   1.741   4.741 -0.8301  0.5194 -0.0024
  222PVA    H8537712   7.063   1.650   4.711  0.5324 -0.5142  0.6656
  222PVA    H8637713   7.196   1.757   4.668  0.1964  1.9532  1.3620
  222PVA    C4437714   7.176   1.708   4.887 -0.0665 -0.8317 -0.9462
  222PVA    H8737715   7.248   1.789   4.907 -1.7154  0.4329  0.1377
  222PVA    O1537716   7.079   1.690   5.000 -0.2819  0.1702  0.6476
  222PVA    H8837717   7.020   1.645   4.936 -0.2509  0.7123  0.2278
  222PVA    C4537718   7.280   1.596   4.892 -0.2914  0.7619  0.4854
  222PVA    H8937719   7.322   1.605   4.993  0.4596  1.6705  0.1032
  222PVA    H9037720   7.362   1.611   4.821 -0.7911 -0.2901 -0.3508
  222PVA    C4637721   7.225   1.459   4.852 -0.5500  0.0776 -0.0646
  222PVA    H9137722   7.137   1.430   4.912 -4.0308  1.8307 -3.8290
  222PVA    H9237723   7.208   1.435   4.747  4.5910 -1.9265 -0.7269
  222PVA    C4737724   7.321   1.350   4.887 -0.1519  0.2622 -0.4035
  222PVA    H9337725   7.271   1.256   4.860 -2.0166  1.4961 -1.4871
  222PVA    O1637726   7.435   1.359   4.802 -0.1518 -0.0297  0.9628
  222PVA    H9437727   7.507   1.333   4.861  1.4293 -0.8020 -1.1877
  222PVA    C4837728   7.374   1.337   5.030  0.1252  0.3279 -0.0270
  222PVA    H9537729   7.424   1.425   5.070  2.0144 -1.2103  1.1576
  222PVA    H9637730   7.284   1.307   5.086 -2.1773 -2.1518 -4.4045
  222PVA    C4937731   7.481   1.225   5.044  0.0928  0.1181  0.0012
  222PVA    H9737732   7.445   1.132   4.997 -1.8884  0.7316  0.2032
  222PVA    H9837733   7.573   1.232   4.986  0.9139 -4.9738  0.1832
  222PVA    C5037734   7.523   1.214   5.193  0.1146 -0.8186 -0.4009
  222PVA    H9937735   7.432   1.199   5.252  1.3961 -1.2647  1.5446
  222PVA    O1737736   7.575   1.340   5.256 -0.4746 -0.8885 -1.1718
  222PVA   H10037737   7.657   1.378   5.221 -0.6932  0.5022 -0.2390
  222PVA    C5137738   7.640   1.122   5.212  0.4012  0.3602  2.0387
  222PVA   H10137739   7.619   1.030   5.156  0.7147  0.8269  1.1298
  222PVA   H10237740   7.729   1.144   5.152  0.9773 -0.4643  2.5761
  223PVA     C137741   4.294   1.280   3.555  0.2548 -0.2961 -0.2014
  223PVA     H137742   4.371   1.336   3.609 -0.8818  2.5507 -1.3472
  223PVA     H237743   4.303   1.304   3.448  0.5111 -1.6083 -0.4837
  223PVA     C237744   4.321   1.125   3.587 -0.6492  0.5872  0.7684
  223PVA     H337745   4.410   1.115   3.651 -0.8824 -0.7769  0.9144
  223PVA     O137746   4.206   1.083   3.653  0.6430  0.6313 -0.0772
  223PVA     H437747   4.174   1.158   3.707 -0.5909  0.3421 -0.3618
  223PVA     C337748   4.329   1.051   3.450 -0.4785  0.0850 -0.0983
  223PVA     H537749   4.260   1.085   3.372 -2.0954 -3.5880 -0.4831
  223PVA     H637750   4.303   0.947   3.472 -0.8943  0.5224  1.5814
  223PVA     C437751   4.474   1.043   3.389  0.3333 -0.0625 -0.3797
  223PVA     H737752   4.541   1.112   3.441  0.8072  0.2334 -1.3641
  223PVA     H837753   4.498   0.944   3.429  2.7177  0.6230  0.0446
  223PVA     C537754   4.475   1.049   3.240  0.2101  1.0924 -0.8270
  223PVA     H937755   4.408   1.129   3.206 -3.6420  0.5123  4.2704
  223PVA     O237756   4.401   0.931   3.199 -0.3434  0.0069 -0.3909
  223PVA    H1037757   4.445   0.845   3.195  0.2592  0.3233 -0.5986
  223PVA     C637758   4.616   1.056   3.176  0.7321 -0.6140 -0.4952
  223PVA    H1137759   4.683   1.134   3.214 -1.6940  1.2953  0.1376
  223PVA    H1237760   4.684   0.971   3.191  2.7058  0.8708 -0.7360
  223PVA     C737761   4.602   1.085   3.024  0.0049  0.3304 -0.2661
  223PVA    H1337762   4.528   1.164   3.009 -0.3191  0.5248  2.0235
  223PVA    H1437763   4.559   0.997   2.975 -0.3489 -0.3072  1.1414
  223PVA     C837764   4.726   1.142   2.955 -0.2404  0.2886  0.5879
  223PVA    H1537765   4.774   1.233   2.992 -1.7283  1.7390 -0.9158
  223PVA     O337766   4.819   1.040   2.929  0.6674  0.1891 -0.6946
  223PVA    H1637767   4.899   1.089   2.904  0.9014 -0.4811 -1.2958
  223PVA     C937768   4.700   1.186   2.810  0.0765  0.1710  0.3642
  223PVA    H1737769   4.646   1.102   2.763  2.6856 -0.8096 -1.0676
  223PVA    H1837770   4.634   1.274   2.809  0.6739  0.6234  0.5890
  223PVA    C1037771   4.819   1.208   2.716  0.0906 -0.0077  0.1690
  223PVA    H1937772   4.885   1.122   2.730  0.9811  0.7008  0.3550
  223PVA    H2037773   4.887   1.288   2.747  2.9153 -1.0566 -2.7282
  223PVA    C1137774   4.783   1.239   2.569  0.2908 -0.1038  0.1559
  223PVA    H2137775   4.705   1.167   2.542  0.5998  0.3645 -2.1975
  223PVA     O437776   4.753   1.375   2.550  0.7069  0.1547  0.5356
  223PVA    H2237777   4.665   1.376   2.508  0.6527 -1.1443  0.5757
  223PVA    C1237778   4.908   1.210   2.483 -0.5238 -0.4511  0.1339
  223PVA    H2337779   5.003   1.237   2.530 -0.2492  0.5390 -0.9636
  223PVA    H2437780   4.910   1.105   2.450  0.2192 -0.6983  0.9521
  223PVA    C1337781   4.896   1.281   2.347 -1.3153 -0.0776  0.7980
  223PVA    H2537782   4.896   1.391   2.342  5.1584  0.4339  2.6110
  223PVA    H2637783   4.993   1.263   2.297 -2.0269  4.2189 -2.8099
  223PVA    C1437784   4.781   1.229   2.253 -0.0423 -0.1603 -1.1564
  223PVA    H2737785   4.682   1.227   2.301  0.0991 -2.5183 -0.8379
  223PVA     O537786   4.815   1.096   2.218  0.1031  0.1663  0.2589
  223PVA    H2837787   4.863   1.071   2.299  2.6508  1.7920 -0.6282
  223PVA    C1537788   4.761   1.316   2.128 -0.6882 -0.0663  0.8368
  223PVA    H2937789   4.813   1.268   2.044 -2.0562 -1.3000  0.6491
  223PVA    H3037790   4.807   1.415   2.139  1.5741 -1.2851  3.4583
  223PVA    C1637791   4.619   1.312   2.081  0.2245  0.0518  0.3023
  223PVA    H3137792   4.601   1.214   2.036  0.5439  0.3755 -0.5379
  223PVA    H3237793   4.549   1.345   2.160  2.0825 -0.7236  2.3636
  223PVA    C1737794   4.595   1.400   1.950 -0.3070  0.1563 -0.0834
  223PVA    H3337795   4.625   1.502   1.977  1.6646 -0.6136  0.7875
  223PVA     O637796   4.672   1.339   1.845 -0.5306  0.5219 -0.4486
  223PVA    H3437797   4.750   1.298   1.888 -2.6017 -0.4981  2.7178
  223PVA    C1837798   4.439   1.406   1.920  0.5886 -0.3859  0.5880
  223PVA    H3537799   4.381   1.407   2.014 -0.0690 -2.3107  0.2475
  223PVA    H3637800   4.417   1.307   1.878 -2.4549 -0.4683  2.0455
  223PVA    C1937801   4.398   1.512   1.809 -0.1984 -0.4031  0.4016
  223PVA    H3737802   4.289   1.514   1.811 -0.1919  1.3943  0.3148
  223PVA    H3837803   4.439   1.482   1.712 -1.9281  1.1565 -0.8862
  223PVA    C2037804   4.429   1.664   1.844 -0.0770 -0.7017 -0.3214
  223PVA    H3937805   4.447   1.680   1.951 -3.6594 -0.0305  0.2982
  223PVA     O737806   4.318   1.742   1.822 -0.0355 -0.4012 -0.3706
  223PVA    H4037807   4.293   1.773   1.911 -5.2713 -0.4231 -1.5302
  223PVA    C2137808   4.549   1.723   1.770 -0.7664  0.2276 -0.3088
  223PVA    H4137809   4.647   1.681   1.795 -0.4275  1.8494  1.2829
  223PVA    H4237810   4.544   1.709   1.661 -0.5528 -0.7942 -0.1960
  223PVA    C2237811   4.555   1.877   1.792  0.2809 -0.5152 -1.0491
  223PVA    H4337812   4.530   1.890   1.898 -1.4205  2.6638 -1.7301
  223PVA    H4437813   4.476   1.931   1.739  0.8377  2.4465  0.8628
  223PVA    C2337814   4.688   1.958   1.788  0.1725  0.0687 -1.3063
  223PVA    H4537815   4.754   1.895   1.850  0.2463 -0.5806 -2.0222
  223PVA     O837816   4.660   2.073   1.856  1.1355 -1.3456  0.1782
  223PVA    H4637817   4.714   2.134   1.803 -2.3841  0.4681 -1.6908
  223PVA    C2437818   4.756   1.993   1.649  0.7574 -0.7745  0.6887
  223PVA    H4737819   4.836   2.066   1.664  1.2497 -1.2702  0.5067
  223PVA    H4837820   4.803   1.898   1.622  2.3736  0.4819 -1.2520
  223PVA    C2537821   4.658   2.057   1.548  0.6140  0.6773 -0.2820
  223PVA    H4937822   4.591   1.976   1.517  1.0765  0.2406 -0.1640
  223PVA    H5037823   4.605   2.134   1.604 -2.6833 -1.9226  0.4587
  223PVA    C2637824   4.742   2.108   1.434  0.0702  0.7395 -0.5792
  223PVA    H5137825   4.833   2.148   1.481 -1.6869  0.8299  3.0553
  223PVA     O937826   4.781   1.988   1.352 -0.2122 -0.9513  0.4428
  223PVA    H5237827   4.846   1.995   1.280 -1.5473  0.0784 -0.7391
  223PVA    C2737828   4.674   2.221   1.347  0.2751  0.6620  1.6354
  223PVA    H5337829   4.578   2.174   1.320  0.6952  0.2724  0.7772
  223PVA    H5437830   4.729   2.257   1.260 -3.1614  3.0197  0.2063
  223PVA    C2837831   4.639   2.344   1.438  0.6582 -0.1455  0.0233
  223PVA    H5537832   4.563   2.309   1.508 -0.9097  1.1499 -0.9547
  223PVA    H5637833   4.724   2.373   1.501 -1.6500 -0.5455  3.5960
  223PVA    C2937834   4.575   2.445   1.359  0.1402 -0.4295 -0.5292
  223PVA    H5737835   4.531   2.403   1.268  5.1366 -0.7384 -3.2087
  223PVA    O1037836   4.490   2.519   1.437  0.5368  0.2147 -0.1170
  223PVA    H5837837   4.434   2.547   1.362  0.0510 -0.9714 -0.2208
  223PVA    C3037838   4.673   2.545   1.287 -0.4919  0.1037 -0.6023
  223PVA    H5937839   4.721   2.612   1.360 -0.0649 -3.7503  3.0075
  223PVA    H6037840   4.760   2.493   1.246  0.4456 -0.4440  1.8959
  223PVA    C3137841   4.608   2.627   1.173  0.5176  1.6575  0.0410
  223PVA    H6137842   4.534   2.692   1.222  2.3384  3.0715  0.9937
  223PVA    H6237843   4.567   2.563   1.094  2.7453  2.3001 -1.7194
  223PVA    C3237844   4.695   2.735   1.102  0.6361 -0.0337 -0.3421
  223PVA    H6337845   4.748   2.685   1.020  1.4894 -0.6110  0.5411
  223PVA    O1137846   4.611   2.828   1.043  0.6711  0.4958  0.3133
  223PVA    H6437847   4.537   2.825   1.106 -0.2242  4.9857 -0.1885
  223PVA    C3337848   4.796   2.819   1.182 -0.1126  0.1389  0.9662
  223PVA    H6537849   4.848   2.729   1.216 -0.9933 -3.6658 -5.9030
  223PVA    H6637850   4.740   2.882   1.253 -1.0869  0.1592  0.2075
  223PVA    C3437851   4.895   2.882   1.087  0.2486  1.1327 -0.8837
  223PVA    H6737852   4.903   2.829   0.991 -0.5129  0.9549 -0.8563
  223PVA    H6837853   4.875   2.988   1.068  1.1177  1.9915  2.4208
  223PVA    C3537854   5.031   2.894   1.160 -0.5568  0.1114 -0.1546
  223PVA    H6937855   5.093   2.953   1.091  0.7381 -0.2694  0.6431
  223PVA    O1237856   5.074   2.766   1.204 -0.3817 -0.1239 -0.4410
  223PVA    H7037857   5.133   2.762   1.281  0.3690 -1.6261 -1.0577
  223PVA    C3637858   5.026   2.974   1.291 -0.5472  0.1761  0.3868
  223PVA    H7137859   4.955   2.932   1.363 -0.5676  0.4219  0.5129
  223PVA    H7237860   5.131   2.978   1.322 -0.1259  2.9805 -1.0255
  223PVA    C3737861   4.990   3.119   1.282  0.1553 -0.3974 -0.0131
  223PVA    H7337862   4.882   3.137   1.267 -0.9630 -5.6604 -0.4029
  223PVA    H7437863   5.041   3.175   1.203 -2.3125  3.2658  0.7134
  223PVA    C3837864   5.035   3.195   1.410  0.6270 -0.4180 -0.1145
  223PVA    H7537865   4.985   3.292   1.398  2.4259  1.7405  6.1278
  223PVA    O1337866   5.180   3.204   1.419  0.9372  0.1167  0.0179
  223PVA    H7637867   5.192   3.269   1.491  0.5857  3.3003 -2.5337
  223PVA    C3937868   4.965   3.156   1.546  0.2864 -0.7986  0.4194
  223PVA    H7737869   4.978   3.053   1.584 -3.0702 -0.8703  1.6579
  223PVA    H7837870   4.861   3.166   1.513  1.3979 -0.0819 -3.2964
  223PVA    C4037871   5.020   3.244   1.660 -0.2242  1.0075 -0.5316
  223PVA    H7937872   5.120   3.220   1.700 -0.4965  3.0494  1.6085
  223PVA    H8037873   5.015   3.350   1.632  1.5147  0.9889 -1.0088
  223PVA    C4137874   4.930   3.223   1.787  0.7302  0.4359  0.3437
  223PVA    H8137875   4.825   3.254   1.776  1.2480  4.2770  3.6178
  223PVA    O1437876   4.930   3.089   1.821  0.0485 -0.6329 -0.2840
  223PVA    H8237877   4.909   3.089   1.916  0.2486  0.7520 -0.2185
  223PVA    C4237878   4.988   3.315   1.894 -0.0393 -0.2360  0.3971
  223PVA    H8337879   5.068   3.252   1.935 -1.1423 -2.0692 -0.1409
  223PVA    H8437880   5.050   3.393   1.847  5.4492 -3.3854  1.5018
  223PVA    C4337881   4.887   3.356   2.009 -0.1255  0.0996  0.2608
  223PVA    H8537882   4.809   3.427   1.978 -1.5424 -0.9397  1.3139
  223PVA    H8637883   4.942   3.411   2.086  1.0772 -0.3884 -0.2271
  223PVA    C4437884   4.795   3.239   2.078  0.0319 -0.6377  0.1323
  223PVA    H8737885   4.718   3.226   2.001 -0.0830  1.3037 -0.1261
  223PVA    O1537886   4.878   3.127   2.088  0.5451 -0.9853  0.1266
  223PVA    H8837887   4.960   3.175   2.110  0.6333 -1.9159  1.9711
  223PVA    C4537888   4.731   3.267   2.213  0.5074  0.6874 -0.2399
  223PVA    H8937889   4.808   3.261   2.290  2.5456 -0.9268 -2.2899
  223PVA    H9037890   4.661   3.187   2.241  4.4406 -1.6266  4.6070
  223PVA    C4637891   4.668   3.406   2.219 -0.1084 -1.0741  0.2102
  223PVA    H9137892   4.747   3.479   2.234  0.0355 -0.6064 -2.3745
  223PVA    H9237893   4.620   3.419   2.122  0.8504  0.0125 -0.1340
  223PVA    C4737894   4.552   3.402   2.322  0.4411 -0.6624  0.0446
  223PVA    H9337895   4.594   3.343   2.404 -0.0503 -4.7876 -2.3810
  223PVA    O1637896   4.450   3.314   2.254  0.6048  0.7461 -0.3181
  223PVA    H9437897   4.394   3.277   2.323  3.9654  1.7222  3.2807
  223PVA    C4837898   4.485   3.533   2.370  0.8491  0.2930 -0.4333
  223PVA    H9537899   4.561   3.557   2.446 -0.3456 -0.7083  1.1300
  223PVA    H9637900   4.479   3.604   2.287  0.6389  1.7749  0.8219
  223PVA    C4937901   4.342   3.521   2.432 -0.7192 -0.6706  1.2505
  223PVA    H9737902   4.358   3.429   2.488  2.1284 -0.4818  0.9080
  223PVA    H9837903   4.260   3.521   2.359 -1.2845  1.5731  1.7998
  223PVA    C5037904   4.309   3.624   2.549  0.0208  0.5224  0.2769
  223PVA    H9937905   4.397   3.639   2.612 -0.0206 -0.5397  0.5918
  223PVA    O1737906   4.263   3.741   2.491 -0.8112  0.4704 -0.0431
  223PVA   H10037907   4.175   3.724   2.453 -0.7792 -2.6175  1.0053
  223PVA    C5137908   4.197   3.559   2.645 -1.8340 -0.2928 -0.3243
  223PVA   H10137909   4.130   3.624   2.703 -1.1306 -0.4090  0.6409
  223PVA   H10237910   4.119   3.527   2.575  0.4588  0.2775 -3.3653
  224PVA     C137911   7.731   0.469   5.227 -0.7078  0.3989  0.6760
  224PVA     H137912   0.003   0.371   5.193 -0.2655  0.0303  2.1551
  224PVA     H237913   0.051   0.529   5.262 -0.7306  2.7732 -2.8913
  224PVA     C237914   7.670   0.538   5.109  1.0742  0.3416  0.5086
  224PVA     H337915   7.565   0.560   5.135  1.5945  2.0156  1.3568
  224PVA     O137916   7.692   0.447   4.998 -0.5910  0.8892 -0.5394
  224PVA     H437917   7.640   0.475   4.920  0.0484 -0.7567 -1.6181
  224PVA     C337918   7.732   0.677   5.069  0.1833  0.1573  0.7302
  224PVA     H537919   0.075   0.669   5.083  1.0423  0.8307 -3.8329
  224PVA     H637920   7.716   0.759   5.140 -0.3771 -1.5541  2.6762
  224PVA     C437921   7.701   0.722   4.921 -0.1375 -0.6574  0.1792
  224PVA     H737922   0.024   0.704   4.860 -2.0809  0.4338 -3.2138
  224PVA     H837923   7.614   0.671   4.876 -0.4085 -0.1083  0.0700
  224PVA     C537924   7.673   0.875   4.902  1.3414  0.1884 -0.5257
  224PVA     H937925   7.738   0.926   4.974 -0.3289 -2.9644  3.6649
  224PVA     O237926   7.522   0.902   4.914 -0.0760 -0.4714 -0.2544
  224PVA    H1037927   7.480   0.820   4.882  2.6744 -3.3925  2.8103
  224PVA     C637928   7.703   0.933   4.757 -0.0447  0.0133  0.1316
  224PVA    H1137929   7.661   0.860   4.686  0.6484 -0.3547  0.0858
  224PVA    H1237930   0.037   0.896   4.728  0.6383 -1.8844  4.0687
  224PVA     C737931   7.681   1.082   4.724  1.0271 -0.1604 -1.0112
  224PVA    H1337932   7.574   1.102   4.739  1.3532  1.3746 -0.5604
  224PVA    H1437933   7.724   1.130   4.813  0.9988  0.2021 -1.1895
  224PVA     C837934   7.737   1.146   4.591 -0.6807  0.3907 -0.8591
  224PVA    H1537935   7.665   1.131   4.509  1.2006 -1.1608 -2.3551
  224PVA     O337936   0.087   1.080   4.539 -1.2222 -0.5239 -0.5373
  224PVA    H1637937   0.161   1.067   4.600  1.6787  1.8510 -3.2163
  224PVA     C937938   7.750   1.296   4.611 -1.3928  0.0729  0.4073
  224PVA    H1737939   7.654   1.335   4.645 -0.6488  2.4484 -0.0206
  224PVA    H1837940   0.066   1.303   4.685  3.3385 -3.6410 -3.6570
  224PVA    C1037941   0.033   1.366   4.479  0.0457 -0.4211  0.4819
  224PVA    H1937942   0.124   1.316   4.444  0.9905  1.1590  0.6359
  224PVA    H2037943   7.724   1.362   4.398 -1.8671 -1.1551  2.1664
  224PVA    C1137944   0.071   1.512   4.513  0.5828  0.2649 -0.4039
  224PVA    H2137945   0.135   1.525   4.601  0.5169  0.5633 -0.3996
  224PVA     O437946   7.721   1.579   4.563  0.2932  0.4461  0.2540
  224PVA    H2237947   7.648   1.563   4.501 -0.7394 -0.9464  1.7479
  224PVA    C1237948   0.128   1.592   4.402 -1.1422 -0.7510  0.1596
  224PVA    H2337949   0.230   1.552   4.400 -0.7328 -0.2942  4.4916
  224PVA    H2437950   0.070   1.574   4.310  1.7601  1.7552 -2.3715
  224PVA    C1337951   0.137   1.746   4.429  0.3076 -0.9988 -0.7224
  224PVA    H2537952   0.052   1.800   4.386  0.7726 -1.4630 -2.3008
  224PVA    H2637953   0.140   1.747   4.539 -0.6640  0.1754 -0.6918
  224PVA    C1437954   0.272   1.812   4.381  0.1953  1.9831 -0.0850
  224PVA    H2737955   0.332   1.736   4.329  0.8167  4.0303 -2.5531
  224PVA     O537956   0.346   1.845   4.495  0.1561 -0.2812  0.4750
  224PVA    H2837957   0.313   1.925   4.539 -0.2509 -0.8442  1.2226
  224PVA    C1537958   0.263   1.923   4.278  0.3177 -0.6046 -0.1815
  224PVA    H2937959   0.223   2.013   4.326  2.2083 -0.3109  0.9142
  224PVA    H3037960   0.195   1.893   4.197  1.8927  0.5570 -2.0250
  224PVA    C1637961   0.408   1.962   4.227  0.5483  0.5857  0.4447
  224PVA    H3137962   0.445   2.021   4.312 -2.2099 -0.3094  2.4480
  224PVA    H3237963   0.444   1.859   4.237 -1.3468  0.0411  2.6655
  224PVA    C1737964   0.429   2.041   4.093  0.2784 -0.1882  0.8621
  224PVA    H3337965   0.398   2.146   4.102 -1.5155 -0.4790 -1.0764
  224PVA     O637966   0.368   1.956   3.989  0.4805  0.1586 -1.2300
  224PVA    H3437967   0.419   1.875   3.971  3.3678  2.1274 -2.5793
  224PVA    C1837968   0.567   2.066   4.036  0.5854  0.9319 -0.6247
  224PVA    H3537969   0.624   2.095   4.125  1.3920 -3.8546  0.6934
  224PVA    H3637970   0.598   1.963   4.011 -0.1701  0.8840 -1.4072
  224PVA    C1937971   0.592   2.157   3.909 -0.5075  0.6401  1.3988
  224PVA    H3737972   0.618   2.260   3.936 -3.0387  1.8691 -0.4957
  224PVA    H3837973   0.493   2.171   3.865 -2.0517 -2.5819  3.4618
  224PVA    C2037974   0.662   2.100   3.780  0.6396 -0.0894  0.3555
  224PVA    H3937975   0.613   2.026   3.714  2.0942  3.2874 -5.1919
  224PVA     O737976   0.785   2.037   3.821 -0.3720 -1.0342 -0.4875
  224PVA    H4037977   0.772   1.967   3.888 -0.3577 -1.6414 -1.1092
  224PVA    C2137978   0.698   2.215   3.677  0.4151 -0.1002 -0.3770
  224PVA    H4137979   0.603   2.261   3.648 -0.5666 -2.4133 -1.0744
  224PVA    H4237980   0.774   2.276   3.729  0.4126  1.4334 -2.0427
  224PVA    C2237981   0.756   2.165   3.539 -0.8779  0.1234 -0.0962
  224PVA    H4337982   0.730   2.059   3.531  0.1227 -0.6670  4.4890
  224PVA    H4437983   0.705   2.228   3.465  0.0450 -0.2913 -1.0996
  224PVA    C2337984   0.905   2.190   3.519 -0.2607 -0.1406  0.2405
  224PVA    H4537985   0.938   2.126   3.601 -0.7322 -0.3732  0.2512
  224PVA     O837986   0.961   2.315   3.506  0.4529 -0.8159 -0.6049
  224PVA    H4637987   0.882   2.358   3.544 -0.5885 -4.9662  2.6607
  224PVA    C2437988   0.970   2.108   3.403 -0.6286 -0.0038  0.1677
  224PVA    H4737989   0.965   1.999   3.411 -0.9724 -0.0243 -0.2637
  224PVA    H4837990   0.913   2.140   3.315 -0.0227  3.6822  0.9679
  224PVA    C2537991   1.109   2.132   3.353 -1.2582  0.1604  0.3466
  224PVA    H4937992   1.173   2.154   3.439  0.2592 -0.2372 -0.6524
  224PVA    H5037993   1.100   2.230   3.305 -1.9497 -0.2330 -0.3768
  224PVA    C2637994   1.199   2.031   3.263 -0.1761  0.7289  0.3270
  224PVA    H5137995   1.145   1.992   3.176  1.8143 -2.9207  0.5104
  224PVA     O937996   1.220   1.913   3.336  0.8810  0.1541  0.5428
  224PVA    H5237997   1.310   1.918   3.374 -0.1063  4.5994  3.0411
  224PVA    C2737998   1.329   2.096   3.209  0.5470  0.3212 -0.4268
  224PVA    H5337999   1.308   2.182   3.143 -2.3104 -1.5564 -2.1694
  224PVA    H5438000   1.388   2.137   3.292 -0.5873  2.3271 -0.5380
  224PVA    C2838001   1.419   1.999   3.110  0.4460  0.2909 -0.0641
  224PVA    H5538002   1.395   1.898   3.144  3.9398  0.1035  2.3818
  224PVA    H5638003   1.377   2.018   3.011 -2.2982  2.5248  1.3802
  224PVA    C2938004   1.580   1.996   3.133 -0.0123 -0.4632  0.6596
  224PVA    H5738005   1.614   1.912   3.195 -0.6809 -2.6296 -1.7186
  224PVA    O1038006   1.626   2.111   3.196  0.8148 -0.0954  0.3161
  224PVA    H5838007   1.583   2.171   3.133 -3.4959 -1.8976  1.2055
  224PVA    C3038008   1.653   1.982   2.990  0.5370 -0.3840 -0.2708
  224PVA    H5938009   1.643   1.887   2.936 -2.5073 -0.7788  0.8088
  224PVA    H6038010   1.625   2.065   2.923  0.4410  0.0274  0.2743
  224PVA    C3138011   1.802   2.022   2.982 -0.8209 -1.0507  1.2790
  224PVA    H6138012   1.864   1.946   3.031  1.4190 -0.0245  0.1625
  224PVA    H6238013   1.820   2.114   3.038 -1.0906 -1.9505  2.9011
  224PVA    C3238014   1.865   2.070   2.844 -0.1345 -0.1086 -0.8725
  224PVA    H6338015   1.813   2.153   2.796 -2.2846 -0.9500 -0.1426
  224PVA    O1138016   1.879   1.968   2.751 -0.5214 -1.4174  0.2278
  224PVA    H6438017   1.791   1.961   2.710  0.0518 -0.3452 -1.2981
  224PVA    C3338018   2.023   2.125   2.859  0.8308  0.3810 -0.2199
  224PVA    H6538019   2.077   2.061   2.930  4.2888  2.2027 -0.9651
  224PVA    H6638020   2.013   2.216   2.919 -1.2531 -0.3167  0.5713
  224PVA    C3438021   2.127   2.153   2.738 -0.9677 -0.1964 -0.1839
  224PVA    H6738022   2.163   2.054   2.708 -1.4232 -1.3221  2.6862
  224PVA    H6838023   2.066   2.205   2.663 -2.1434 -3.9232 -2.0130
  224PVA    C3538024   2.244   2.248   2.783  0.6949 -1.1709 -0.4150
  224PVA    H6938025   2.199   2.346   2.802  1.7542 -0.2201 -2.5291
  224PVA    O1238026   2.298   2.209   2.907 -1.6675  1.0041 -0.1271
  224PVA    H7038027   2.377   2.257   2.936 -0.2832 -0.7371 -0.8680
  224PVA    C3638028   2.351   2.249   2.671  0.0488  0.6296  0.0517
  224PVA    H7138029   2.386   2.145   2.674 -1.8371 -0.0828  3.2558
  224PVA    H7238030   2.294   2.259   2.578  0.7803 -0.0959 -0.4855
  224PVA    C3738031   2.445   2.367   2.691 -0.5447  0.9388  0.1504
  224PVA    H7338032   2.457   2.364   2.800 -0.4241 -1.4164  0.1245
  224PVA    H7438033   2.396   2.456   2.650  0.0019  1.9364  1.5768
  224PVA    C3838034   2.584   2.336   2.632 -0.2389 -0.9847  0.8168
  224PVA    H7538035   2.555   2.357   2.528  3.3488  3.5408  0.3547
  224PVA    O1338036   2.628   2.201   2.648 -0.8987 -0.2426  0.4538
  224PVA    H7638037   2.725   2.200   2.640 -0.9558 -1.4970 -0.2248
  224PVA    C3938038   2.693   2.445   2.656 -0.4068  0.9993 -0.7516
  224PVA    H7738039   2.684   2.470   2.763  1.0062  0.1529 -0.4062
  224PVA    H7838040   2.654   2.536   2.608  2.3306  1.6024 -2.0586
  224PVA    C4038041   2.845   2.433   2.626  0.0903 -0.9573  0.5911
  224PVA    H7938042   2.887   2.377   2.711 -0.1560 -3.0731 -0.6192
  224PVA    H8038043   2.871   2.362   2.546  1.7898 -0.5661  0.7677
  224PVA    C4138044   2.913   2.565   2.646  0.4868 -0.2960  0.0925
  224PVA    H8138045   2.872   2.606   2.739  2.8847  5.3851 -0.9857
  224PVA    O1438046   2.901   2.647   2.540  0.2761  1.1958 -0.0644
  224PVA    H8238047   2.901   2.614   2.448  1.0449  0.4858  0.1762
  224PVA    C4238048   3.071   2.549   2.675  0.7498 -0.3796 -0.2146
  224PVA    H8338049   3.078   2.513   2.778  0.5011  2.0964  0.7566
  224PVA    H8438050   3.124   2.479   2.610 -0.2408 -0.3778 -1.0487
  224PVA    C4338051   3.147   2.690   2.673  0.0395 -0.4824  0.7397
  224PVA    H8538052   3.086   2.768   2.722  0.2787  0.8437 -0.9918
  224PVA    H8638053   3.171   2.744   2.581  2.1991  1.2744  2.2076
  224PVA    C4438054   3.292   2.706   2.753 -0.0226 -0.0940  0.2907
  224PVA    H8738055   3.364   2.629   2.722  0.9863  0.6440  0.7260
  224PVA    O1538056   3.277   2.667   2.891  0.2725  1.0934  0.5440
  224PVA    H8838057   3.361   2.677   2.940  0.4570  0.9098  0.2615
  224PVA    C4538058   3.367   2.846   2.750  1.2123  1.3172  0.3681
  224PVA    H8938059   3.295   2.919   2.789  1.0634  2.3118 -1.6178
  224PVA    H9038060   3.390   2.869   2.645  2.7213 -0.7526  0.1804
  224PVA    C4638061   3.505   2.854   2.819 -0.4785  0.3255  0.3723
  224PVA    H9138062   3.482   2.840   2.925 -0.3461 -0.9152  0.2514
  224PVA    H9238063   3.561   2.760   2.806  0.6045  0.4955  3.1133
  224PVA    C4738064   3.602   2.979   2.796 -0.3984  1.1835  0.3722
  224PVA    H9338065   3.638   2.969   2.693  0.8702  2.4178  0.6708
  224PVA    O1638066   3.541   3.105   2.818  0.9401  0.8827  0.1052
  224PVA    H9438067   3.596   3.185   2.827  2.9459 -0.2610 -1.2522
  224PVA    C4838068   3.729   2.974   2.884  0.5180 -0.8609  0.6567
  224PVA    H9538069   3.696   2.983   2.988 -1.4654 -3.1251  0.2993
  224PVA    H9638070   3.790   2.886   2.862 -0.1321 -1.1938  0.1528
  224PVA    C4938071   3.827   3.092   2.857 -1.1507 -0.3607  1.1976
  224PVA    H9738072   3.778   3.190   2.868 -0.2534  0.1014  1.1799
  224PVA    H9838073   3.861   3.077   2.754  0.5953 -6.4222  2.2748
  224PVA    C5038074   3.958   3.090   2.960 -0.7399 -1.2585  0.8821
  224PVA    H9938075   3.973   2.986   2.989 -0.7393 -1.5733 -0.2167
  224PVA    O1738076   3.935   3.182   3.069  0.8042  0.0455 -0.1230
  224PVA   H10038077   3.970   3.268   3.038  6.4493 -2.2240 -1.3470
  224PVA    C5138078   4.098   3.120   2.901 -0.3295  0.4975 -1.4244
  224PVA   H10138079   4.171   3.053   2.950  1.7121  2.7231 -1.2611
  224PVA   H10238080   4.105   3.070   2.804  1.2347 -1.0872 -0.5816
  225PVA     C138081   7.603   0.095   5.575 -0.5049 -0.0744  0.6504
  225PVA     H138082   7.710   0.073   5.579 -1.0842 -3.1857  1.1963
  225PVA     H238083   7.575   0.014   5.506  0.7831 -0.8756  1.0486
  225PVA     C238084   7.525   0.073   5.704 -0.1296 -0.5688  1.1777
  225PVA     H338085   7.572   0.127   5.786  5.1035 -1.7428 -0.6913
  225PVA     O138086   7.389   0.110   5.696  0.2457 -0.2479 -0.2604
  225PVA     H438087   7.392   0.203   5.665 -4.2132 -0.0638 -0.7008
  225PVA     C338088   7.555   7.624   5.763  0.0804 -0.3139  0.5129
  225PVA     H538089   7.664   7.618   5.769  0.3552  2.7726  0.1358
  225PVA     H638090   7.545   7.548   5.685  1.1919  0.9829 -0.9557
  225PVA     C438091   7.500   7.581   5.900 -0.1934 -0.6227 -0.1500
  225PVA     H738092   7.393   7.602   5.891 -0.1738 -1.1778 -2.0288
  225PVA     H838093   7.549   7.635   5.982  1.0272 -3.1243  0.8761
  225PVA     C538094   7.519   7.427   5.941 -0.7098  0.4061  0.7123
  225PVA     H938095   7.622   7.410   5.973 -0.5633 -0.8706 -0.3545
  225PVA     O238096   7.492   7.343   5.825  0.1718  0.9169 -0.0102
  225PVA    H1038097   7.485   7.250   5.852 -2.8308  1.9423  3.4593
  225PVA     C638098   7.410   7.385   6.045  0.8038  0.1623  1.1561
  225PVA    H1138099   7.411   7.465   6.119 -0.1277  0.6441  0.6625
  225PVA    H1238100   7.309   7.402   6.007 -1.7744 -2.5060  5.8922
  225PVA     C738101   7.409   7.239   6.090  0.4508 -0.0622  0.2996
  225PVA    H1338102   7.491   7.205   6.154  0.3840  2.3582  1.7771
  225PVA    H1438103   7.415   7.174   6.001  0.5896 -2.9302  2.2777
  225PVA     C838104   7.274   7.178   6.163 -0.1171 -1.1009  0.6878
  225PVA    H1538105   7.192   7.226   6.109 -1.2116 -2.4371  1.0918
  225PVA     O338106   7.253   7.198   6.299 -0.7991  0.0305 -0.1199
  225PVA    H1638107   7.204   7.122   6.334  0.2669  0.7580  3.3712
  225PVA     C938108   7.246   7.023   6.148 -0.1542 -0.5849  0.0284
  225PVA    H1738109   7.320   6.979   6.216  0.5963 -1.5126 -1.3530
  225PVA    H1838110   7.266   6.999   6.043 -5.6491  1.5422 -1.8983
  225PVA    C1038111   7.107   6.968   6.197  0.5848 -0.8610  0.0597
  225PVA    H1938112   7.034   7.044   6.166  1.2002 -0.0664  0.5381
  225PVA    H2038113   7.100   6.969   6.307 -3.5307 -0.1639 -0.0657
  225PVA    C1138114   7.070   6.812   6.159  0.8481 -0.3097 -0.2457
  225PVA    H2138115   7.023   6.802   6.060  0.2600 -2.6648  0.2247
  225PVA     O438116   7.186   6.740   6.149  0.1444  0.1410 -0.6774
  225PVA    H2238117   7.177   6.681   6.072  1.2388 -0.2602 -0.5217
  225PVA    C1238118   6.969   6.749   6.274 -0.6474 -0.3848 -0.3683
  225PVA    H2338119   7.023   6.697   6.354  2.5266  0.4632 -1.8088
  225PVA    H2438120   6.887   6.810   6.315 -4.5047 -2.6159 -3.9842
  225PVA    C1338121   6.893   6.629   6.208  0.9201  1.2783 -0.4802
  225PVA    H2538122   6.953   6.579   6.131  2.0077 -0.5275  1.4319
  225PVA    H2638123   6.808   6.663   6.147 -0.8956  0.7083  1.6337
  225PVA    C1438124   6.844   6.504   6.301 -0.0554  0.3382  0.2992
  225PVA    H2738125   6.785   6.565   6.371 -1.9239  0.9914 -1.7155
  225PVA     O538126   6.957   6.458   6.363  0.5373  0.6283 -0.6951
  225PVA    H2838127   6.956   6.502   6.449  0.6091  2.1582 -1.4469
  225PVA    C1538128   6.754   6.391   6.238  1.1199 -0.3562  0.0034
  225PVA    H2938129   6.800   6.340   6.153 -0.4795 -1.8153 -0.0557
  225PVA    H3038130   6.664   6.444   6.203 -0.3700 -0.7135  2.9910
  225PVA    C1638131   6.708   6.291   6.351 -0.0788 -0.0917 -1.2501
  225PVA    H3138132   6.807   6.273   6.395 -1.5122 -2.3090  1.3688
  225PVA    H3238133   6.635   6.342   6.416 -0.1696 -2.8328  0.9750
  225PVA    C1738134   6.632   6.155   6.319 -1.1111 -0.1734 -0.0491
  225PVA    H3338135   6.527   6.185   6.320 -1.3296 -0.9188 -0.5334
  225PVA     O638136   6.672   6.089   6.200 -0.3674 -0.6763  0.9624
  225PVA    H3438137   6.699   6.155   6.134 -1.3661 -1.6396 -0.4707
  225PVA    C1838138   6.643   6.049   6.434 -0.4895 -0.9356  0.3544
  225PVA    H3538139   6.739   6.000   6.413  0.1803  0.0020  1.1298
  225PVA    H3638140   6.629   6.090   6.535 -1.2541  0.8377 -0.4324
  225PVA    C1938141   6.558   5.922   6.428 -1.0300  0.1830  0.0948
  225PVA    H3738142   6.563   5.855   6.341  0.8135 -1.0536  1.0822
  225PVA    H3838143   6.460   5.971   6.422  0.5427  3.3992 -2.5961
  225PVA    C2038144   6.569   5.827   6.557  0.9812 -1.2115  0.3345
  225PVA    H3938145   6.538   5.884   6.645  1.2632 -0.9825  0.2867
  225PVA     O738146   6.702   5.774   6.574 -0.3650 -0.0728 -0.5981
  225PVA    H4038147   6.702   5.792   6.670  1.9512  2.4545 -0.9449
  225PVA    C2138148   6.465   5.697   6.578 -0.4258  0.0545  1.0490
  225PVA    H4138149   6.441   5.667   6.476 -1.2437  0.2989  1.1612
  225PVA    H4238150   6.365   5.731   6.608  0.0612  0.7378  1.9564
  225PVA    C2238151   6.506   5.569   6.658 -0.1260 -0.2175 -0.1152
  225PVA    H4338152   6.509   5.595   6.765 -1.5545 -0.2590 -0.0463
  225PVA    H4438153   6.607   5.543   6.625 -0.8448  0.6468 -3.2874
  225PVA    C2338154   6.422   5.449   6.637  0.5713  0.3702 -0.2475
  225PVA    H4538155   6.436   5.397   6.542 -3.2017 -0.7346 -0.3624
  225PVA     O838156   6.279   5.491   6.631  0.6484  0.3484  0.2322
  225PVA    H4638157   6.250   5.529   6.716  1.3781 -0.4285  0.8482
  225PVA    C2438158   6.432   5.345   6.759 -1.5670 -0.1359  0.3312
  225PVA    H4738159   6.539   5.340   6.783 -2.0173 -0.5815  2.4794
  225PVA    H4838160   6.401   5.388   6.855  0.0941 -0.5744  1.1008
  225PVA    C2538161   6.391   5.190   6.729 -0.1862 -0.7739  0.7581
  225PVA    H4938162   6.441   5.163   6.635  0.3662 -1.2541  1.1865
  225PVA    H5038163   6.289   5.175   6.690 -0.2910  0.3334  0.5828
  225PVA    C2638164   6.418   5.082   6.840 -0.0792  0.4659  0.0643
  225PVA    H5138165   6.523   5.052   6.847 -0.0183  0.5564 -0.4383
  225PVA     O938166   6.378   5.129   6.969  0.5284 -0.4317 -0.1892
  225PVA    H5238167   6.438   5.095   7.037 -2.5750  0.7991  3.5324
  225PVA    C2738168   6.335   4.951   6.810 -0.5474 -0.1843  0.0127
  225PVA    H5338169   6.353   4.914   6.709 -1.4228  1.0578 -0.6255
  225PVA    H5438170   6.230   4.971   6.837  1.1508  3.8534  5.4721
  225PVA    C2838171   6.368   4.822   6.902  0.7545  0.2014  0.2843
  225PVA    H5538172   6.477   4.806   6.909  0.4143 -1.9858  2.2142
  225PVA    H5638173   6.329   4.833   7.004 -3.2475  2.4132 -1.2952
  225PVA    C2938174   6.336   4.682   6.842  0.0494  0.1415 -0.5499
  225PVA    H5738175   6.401   4.670   6.754  1.4278 -0.7047  0.5459
  225PVA    O1038176   6.200   4.682   6.799  0.1230  0.4582 -0.1727
  225PVA    H5838177   6.149   4.629   6.863 -0.3167  1.6939  0.5194
  225PVA    C3038178   6.358   4.563   6.946 -0.0232  0.4903 -0.0343
  225PVA    H5938179   6.460   4.567   6.988 -0.7099  0.5803  1.6901
  225PVA    H6038180   6.284   4.560   7.027  2.0623 -2.5099  1.9986
  225PVA    C3138181   6.354   4.420   6.866 -0.1160  0.4377 -0.5039
  225PVA    H6138182   6.399   4.410   6.766  0.3530 -1.9233 -0.1137
  225PVA    H6238183   6.253   4.393   6.832 -0.4569  1.0876 -0.0267
  225PVA    C3238184   6.405   4.303   6.962 -0.0052  2.1519  0.0175
  225PVA    H6338185   6.459   4.354   7.043  1.4186 -0.4445  0.8364
  225PVA    O1138186   6.299   4.234   7.022 -0.1651  0.1045  0.3809
  225PVA    H6438187   6.315   4.142   6.996  0.5482 -0.0870  1.4225
  225PVA    C3338188   6.495   4.187   6.911 -1.9804  0.5439  0.9128
  225PVA    H6538189   6.587   4.228   6.867 -1.4711  0.2161  1.6478
  225PVA    H6638190   6.437   4.151   6.826 -1.2043  0.4779  0.3957
  225PVA    C3438191   6.548   4.067   7.002 -0.9799 -1.0935 -0.1442
  225PVA    H6738192   6.463   4.036   7.063  1.0838 -1.5692  2.6864
  225PVA    H6838193   6.620   4.082   7.083 -0.7099 -1.3402 -0.3348
  225PVA    C3538194   6.603   3.946   6.923 -0.9553 -0.3345  0.6717
  225PVA    H6938195   6.554   3.931   6.826 -0.4798 -3.6517  0.8239
  225PVA    O1238196   6.737   3.963   6.884  1.1115 -0.0373 -0.7357
  225PVA    H7038197   6.777   3.876   6.865  1.0466 -0.1333 -0.4228
  225PVA    C3638198   6.594   3.813   7.005 -0.1856  0.0346  0.2584
  225PVA    H7138199   6.624   3.826   7.109 -1.1750 -2.0080  0.8501
  225PVA    H7238200   6.489   3.785   7.010  0.5839 -4.0046 -1.8446
  225PVA    C3738201   6.678   3.691   6.940 -0.4728  0.7684  0.5274
  225PVA    H7338202   6.782   3.701   6.975 -0.9703  3.3211  1.4757
  225PVA    H7438203   6.683   3.696   6.830  0.2262 -3.3133  0.2092
  225PVA    C3838204   6.619   3.552   6.962 -0.4024  0.3835 -0.0499
  225PVA    H7538205   6.512   3.568   6.985 -0.8230 -4.0327  2.2034
  225PVA    O1338206   6.659   3.498   7.085  0.2939  0.0542 -0.0899
  225PVA    H7638207   6.707   3.419   7.054 -2.3771 -0.9441 -1.9994
  225PVA    C3938208   6.638   3.457   6.842 -0.3853  1.3150 -0.7504
  225PVA    H7738209   6.740   3.452   6.802 -0.1654 -1.5546 -0.0707
  225PVA    H7838210   6.568   3.485   6.763 -4.4778 -1.0411  1.6765
  225PVA    C4038211   6.600   3.303   6.869 -0.5064 -1.3420 -0.1466
  225PVA    H7938212   6.667   3.286   6.954  1.3017  0.3549 -1.1697
  225PVA    H8038213   6.498   3.288   6.908 -0.5886 -1.3027 -0.3478
  225PVA    C4138214   6.639   3.203   6.752 -0.2993 -0.1438  0.1623
  225PVA    H8138215   6.747   3.186   6.760 -0.5028 -0.3149  4.4390
  225PVA    O1438216   6.602   3.264   6.625 -1.3179  0.0621  0.9222
  225PVA    H8238217   6.686   3.294   6.587 -1.0504 -1.4719  0.2577
  225PVA    C4238218   6.576   3.059   6.780  0.4998 -1.5453 -1.4636
  225PVA    H8338219   6.636   3.008   6.856  0.8682  0.2181 -0.5032
  225PVA    H8438220   6.475   3.075   6.820 -0.9897 -4.5227 -3.6415
  225PVA    C4338221   6.559   2.958   6.658  0.5816  0.1772 -0.2155
  225PVA    H8538222   6.663   2.931   6.639  0.8392  2.4479 -2.6748
  225PVA    H8638223   6.520   3.001   6.565  1.3904  3.1402  0.7191
  225PVA    C4438224   6.501   2.814   6.679 -0.5651 -0.1980  0.1207
  225PVA    H8738225   6.582   2.750   6.715  1.2221  0.2341 -2.8000
  225PVA    O1538226   6.391   2.804   6.772 -0.0112  0.4456  0.6731
  225PVA    H8838227   6.363   2.897   6.761  0.2434  0.4217 -0.2721
  225PVA    C4538228   6.463   2.743   6.542 -0.0232  0.2058 -0.8161
  225PVA    H8938229   6.386   2.797   6.486 -1.0221 -1.6888 -1.3587
  225PVA    H9038230   6.548   2.746   6.473 -1.6003 -0.0870 -2.8435
  225PVA    C4638231   6.402   2.592   6.562  0.7997 -1.1844  0.4760
  225PVA    H9138232   6.306   2.596   6.614  2.1010  0.7173  2.9825
  225PVA    H9238233   6.471   2.549   6.635  0.8269  2.9273  3.1861
  225PVA    C4738234   6.387   2.518   6.426  0.1701 -0.2969 -0.1304
  225PVA    H9338235   6.485   2.511   6.378  1.9505 -1.0919  3.3448
  225PVA    O1638236   6.287   2.597   6.359 -1.1006 -0.3885  0.0340
  225PVA    H9438237   6.329   2.618   6.274  1.0773  3.6352  1.8652
  225PVA    C4838238   6.326   2.360   6.415 -0.9182  0.1341  0.1708
  225PVA    H9538239   6.348   2.313   6.512  2.7104 -2.7891 -1.7861
  225PVA    H9638240   6.218   2.372   6.406 -0.5160  3.9918 -1.4112
  225PVA    C4938241   6.408   2.262   6.307  1.3741 -0.1899  0.5564
  225PVA    H9738242   6.517   2.263   6.324  2.3952  1.5006 -4.5352
  225PVA    H9838243   6.390   2.296   6.205 -1.0636 -0.4953  0.8307
  225PVA    C5038244   6.345   2.118   6.318 -0.1010 -0.7338 -0.6931
  225PVA    H9938245   6.237   2.122   6.300 -0.0244 -3.3798 -2.3836
  225PVA    O1738246   6.352   2.075   6.449  0.0185  0.0825  0.5692
  225PVA   H10038247   6.358   1.979   6.435 -0.9097  0.0370  0.4542
  225PVA    C5138248   6.391   2.010   6.220 -0.0615  0.3858 -1.0817
  225PVA   H10138249   6.365   2.052   6.122  1.2909  3.0613 -0.4006
  225PVA   H10238250   6.500   2.009   6.230 -0.1187 -0.7438 -0.4926
  226PVA     C138251   4.938   3.439   3.449  0.5525 -0.0879 -0.5140
  226PVA     H138252   5.007   3.396   3.522 -1.1925  3.1293  3.4589
  226PVA     H238253   4.846   3.404   3.498  0.5156 -0.3848 -0.7984
  226PVA     C238254   4.936   3.596   3.465 -0.9191 -1.1445  0.3176
  226PVA     H338255   4.973   3.633   3.369  1.9615  1.0881  2.1067
  226PVA     O138256   4.813   3.643   3.505 -0.6293 -0.4573  0.2763
  226PVA     H438257   4.775   3.672   3.420  0.8588 -0.2194 -0.3534
  226PVA     C338258   5.040   3.661   3.578  0.2144  0.2018  0.0991
  226PVA     H538259   5.137   3.612   3.559 -1.6260 -4.3870  1.1380
  226PVA     H638260   5.004   3.625   3.675  3.4445 -3.4269  0.1850
  226PVA     C438261   5.047   3.811   3.589 -0.5311  0.1056 -0.5019
  226PVA     H738262   5.105   3.840   3.501  3.2596 -2.4858  0.8635
  226PVA     H838263   4.947   3.854   3.576  0.6992  3.4062 -0.0021
  226PVA     C538264   5.115   3.871   3.724 -0.0767  0.2970 -0.3395
  226PVA     H938265   5.222   3.852   3.737  0.1161  2.5444  2.0738
  226PVA     O238266   5.056   3.837   3.852 -1.5318  0.5832  1.2276
  226PVA    H1038267   4.974   3.889   3.840 -3.4968 -2.7151 -1.5623
  226PVA     C638268   5.117   4.032   3.722 -0.8607 -1.1361 -0.1648
  226PVA    H1138269   5.157   4.072   3.628 -1.5398  2.7670  0.9924
  226PVA    H1238270   5.025   4.092   3.715  0.5708  0.9561 -3.8703
  226PVA     C738271   5.213   4.096   3.831  0.1533  0.3068 -0.5446
  226PVA    H1338272   5.167   4.079   3.929  2.0377 -2.2477 -0.0162
  226PVA    H1438273   5.310   4.045   3.840 -0.1462 -0.8605 -3.0870
  226PVA     C838274   5.224   4.254   3.817  0.2384  0.1441 -0.4645
  226PVA    H1538275   5.274   4.275   3.722 -2.1337  1.4998 -1.5090
  226PVA     O338276   5.098   4.328   3.809  0.9816 -0.4920  0.2167
  226PVA    H1638277   5.068   4.329   3.901  1.8875 -1.9670  0.5534
  226PVA     C938278   5.307   4.321   3.920 -0.4324 -1.1992  1.5114
  226PVA    H1738279   5.405   4.273   3.917  0.5698  0.1733  5.2569
  226PVA    H1838280   5.262   4.317   4.020 -2.5609  2.0196  0.8529
  226PVA    C1038281   5.358   4.463   3.879 -1.1543  1.0455 -0.3272
  226PVA    H1938282   5.405   4.467   3.780  1.0984  1.8625  0.6997
  226PVA    H2038283   5.269   4.526   3.868 -1.4477  0.8214  0.6464
  226PVA    C1138284   5.447   4.543   3.980 -1.2384 -0.3220 -0.3611
  226PVA    H2138285   5.540   4.486   3.993  0.6893  2.3690 -1.3673
  226PVA     O438286   5.370   4.563   4.094  0.5369  0.9114 -0.6504
  226PVA    H2238287   5.336   4.652   4.108 -1.4251 -0.3464  4.5757
  226PVA    C1238288   5.491   4.684   3.925  0.0464  1.7348 -0.3938
  226PVA    H2338289   5.593   4.665   3.889  0.5307  2.4546  0.5572
  226PVA    H2438290   5.413   4.702   3.850 -0.6946 -1.1280 -0.4368
  226PVA    C1338291   5.507   4.809   4.024  0.4336 -0.6680  1.0308
  226PVA    H2538292   5.409   4.826   4.071  0.1952 -0.7321  0.5552
  226PVA    H2638293   5.565   4.760   4.103 -0.8707 -2.5951  0.8941
  226PVA    C1438294   5.572   4.942   3.968 -0.0550  0.3041 -0.0763
  226PVA    H2738295   5.478   4.993   3.944 -1.0037 -0.8856  0.9613
  226PVA     O538296   5.633   4.940   3.836 -0.3063  0.4321  0.3287
  226PVA    H2838297   5.676   5.023   3.809 -0.7212 -0.3275 -3.1838
  226PVA    C1538298   5.645   5.017   4.081  1.0488 -0.5091 -0.1387
  226PVA    H2938299   5.739   4.966   4.106 -0.1616 -3.8466 -1.7585
  226PVA    H3038300   5.574   5.018   4.165 -1.3588  1.6574 -2.0746
  226PVA    C1638301   5.639   5.175   4.060  0.2300 -0.6938  1.4878
  226PVA    H3138302   5.660   5.193   3.954 -1.0492  1.8436  1.5980
  226PVA    H3238303   5.545   5.223   4.091  1.3582  0.8362  2.7373
  226PVA    C1738304   5.768   5.248   4.123 -0.6879 -0.6234 -0.8293
  226PVA    H3338305   5.788   5.204   4.222  1.9663  2.6232  0.2598
  226PVA     O638306   5.881   5.243   4.039 -0.7452 -0.4078 -0.3075
  226PVA    H3438307   5.920   5.156   4.021 -2.7663 -1.0680 -2.0092
  226PVA    C1838308   5.759   5.406   4.134  0.0513 -0.4562 -0.0700
  226PVA    H3538309   5.757   5.444   4.031  0.8793 -5.2525 -2.1182
  226PVA    H3638310   5.654   5.420   4.163 -1.5807 -5.8214 -2.0572
  226PVA    C1938311   5.852   5.489   4.236 -0.5129 -0.8337  0.8876
  226PVA    H3738312   5.957   5.486   4.206  0.1212  1.4383  2.6298
  226PVA    H3838313   5.849   5.437   4.333 -0.7393  0.9805  1.8945
  226PVA    C2038314   5.826   5.641   4.260  0.4214  0.5879 -0.4629
  226PVA    H3938315   5.911   5.688   4.210 -0.0727  2.0273 -0.0169
  226PVA     O738316   5.708   5.665   4.194  0.8751  0.4044  0.9905
  226PVA    H4038317   5.728   5.670   4.099  3.1573  2.8156  1.4714
  226PVA    C2138318   5.823   5.690   4.418  0.2929 -0.5350  0.0236
  226PVA    H4138319   5.924   5.684   4.459  0.8825 -0.2158 -1.3367
  226PVA    H4238320   5.754   5.642   4.489  1.1333 -0.1822  1.1047
  226PVA    C2238321   5.785   5.839   4.422  0.0956 -0.9611  0.2652
  226PVA    H4338322   5.689   5.846   4.368  0.9225 -2.3140 -1.4774
  226PVA    H4438323   5.862   5.887   4.360 -0.5928 -1.3862 -0.9631
  226PVA    C2338324   5.794   5.919   4.561 -0.8410 -0.0302  0.2875
  226PVA    H4538325   5.732   5.872   4.638  0.1585 -1.2334  0.3922
  226PVA     O838326   5.928   5.916   4.611 -0.3723 -1.0419  0.5123
  226PVA    H4638327   5.946   5.820   4.608  0.3043 -0.8817 -0.8074
  226PVA    C2438328   5.737   6.064   4.547  0.1478  0.5740  0.6492
  226PVA    H4738329   5.756   6.108   4.449  0.4606  1.5613  1.1347
  226PVA    H4838330   5.630   6.061   4.570  0.1699  1.2671  0.8458
  226PVA    C2538331   5.798   6.160   4.661  0.0916 -1.4270 -0.5851
  226PVA    H4938332   5.899   6.197   4.640 -0.7309  1.8794  0.6733
  226PVA    H5038333   5.781   6.105   4.755 -1.0436  3.2360  2.2411
  226PVA    C2638334   5.708   6.280   4.699  0.4588 -0.3529 -0.7974
  226PVA    H5138335   5.615   6.235   4.738  0.5586 -1.4387 -1.7705
  226PVA     O938336   5.668   6.350   4.576  0.4711  1.1147 -0.1781
  226PVA    H5238337   5.663   6.284   4.505  2.7185  0.6036  0.0504
  226PVA    C2738338   5.759   6.381   4.807 -0.1063 -1.2638 -0.9483
  226PVA    H5338339   5.764   6.326   4.902 -2.2432 -0.9482 -0.5918
  226PVA    H5438340   5.860   6.403   4.771  0.6295 -1.1286  1.0264
  226PVA    C2838341   5.693   6.530   4.831  0.6025  0.4920 -0.1162
  226PVA    H5538342   5.725   6.593   4.747  1.5784 -0.7289 -0.6816
  226PVA    H5638343   5.584   6.529   4.834  0.5703  2.2566  1.3849
  226PVA    C2938344   5.745   6.606   4.968 -0.1695 -0.0747  0.4394
  226PVA    H5738345   5.750   6.535   5.052  1.1868  2.5833  2.7666
  226PVA    O1038346   5.878   6.621   4.955  0.6141 -0.2480 -0.4574
  226PVA    H5838347   5.906   6.611   4.862  2.4282  0.9960 -0.1043
  226PVA    C3038348   5.698   6.758   5.014  0.9375  0.5215  0.1095
  226PVA    H5938349   5.594   6.742   5.048  0.6502  2.0066 -0.0045
  226PVA    H6038350   5.699   6.818   4.921  1.0886  0.8378  0.3130
  226PVA    C3138351   5.789   6.815   5.133 -0.6145 -0.1531  0.2898
  226PVA    H6138352   5.790   6.748   5.220  1.7829 -2.4503 -1.3600
  226PVA    H6238353   5.883   6.849   5.088 -0.6389  1.7657  1.5624
  226PVA    C3238354   5.751   6.956   5.199 -1.6612 -1.7042 -1.8066
  226PVA    H6338355   5.750   7.028   5.116 -1.4456  1.6910  0.8876
  226PVA    O1138356   5.634   6.958   5.268  0.2701  0.8710  0.7678
  226PVA    H6438357   5.566   6.926   5.206 -0.5495 -0.8081  2.4270
  226PVA    C3338358   5.850   7.040   5.280  0.1240 -0.5061  0.0761
  226PVA    H6538359   5.942   7.032   5.221 -1.7012  3.2618 -3.8729
  226PVA    H6638360   5.859   6.998   5.381  1.0378  1.0414  0.6833
  226PVA    C3438361   5.832   7.194   5.267 -1.3886  0.9938 -0.0377
  226PVA    H6738362   5.866   7.221   5.166  4.5035  0.2449  1.3921
  226PVA    H6838363   5.724   7.209   5.282 -1.3680 -0.0586  1.4094
  226PVA    C3538364   5.906   7.279   5.373 -0.2233 -0.5315  0.1356
  226PVA    H6938365   5.848   7.253   5.462  0.2289  0.8594  0.8540
  226PVA    O1238366   6.031   7.223   5.386  0.0205 -0.1422 -0.3063
  226PVA    H7038367   6.027   7.127   5.374  2.8164 -0.2053 -1.5170
  226PVA    C3638368   5.900   7.428   5.357 -1.4272  0.6016 -0.0300
  226PVA    H7138369   5.950   7.446   5.262 -1.0762 -0.2222 -0.0126
  226PVA    H7238370   5.793   7.453   5.359 -1.5546  0.3745 -2.0122
  226PVA    C3738371   5.962   7.513   5.473 -0.0093 -0.2686 -0.2078
  226PVA    H7338372   6.056   7.462   5.498  0.0884  0.6712  1.4850
  226PVA    H7438373   5.883   7.502   5.548  0.2192 -1.0061 -0.0627
  226PVA    C3838374   6.016   7.662   5.451  1.0834 -0.0211 -0.0122
  226PVA    H7538375   6.089   7.656   5.370 -2.6374 -0.7416 -3.6303
  226PVA    O1338376   5.901   0.049   5.404  0.2182 -0.1017  0.8869
  226PVA    H7638377   5.889   0.137   5.445 -4.2467 -0.1047  0.1497
  226PVA    C3938378   6.083   0.060   5.556 -0.9675 -0.1740 -1.4953
  226PVA    H7738379   6.157   7.679   5.601  2.0115  1.8111 -3.1627
  226PVA    H7838380   6.002   0.079   5.629  2.1128 -1.1950  2.5294
  226PVA    C4038381   6.154   0.199   5.520  0.3353 -0.2318  0.3236
  226PVA    H7938382   6.237   0.178   5.451 -3.1628 -0.6106 -4.3294
  226PVA    H8038383   6.084   0.246   5.449 -0.1264  0.4305  1.2071
  226PVA    C4138384   6.184   0.289   5.645  0.9191 -0.0753  0.4042
  226PVA    H8138385   6.087   0.326   5.681  0.6412  0.3053 -0.6771
  226PVA    O1438386   6.234   0.206   5.744 -0.6010 -0.3394 -0.3627
  226PVA    H8238387   6.307   0.150   5.710 -0.0860  2.5952 -5.0480
  226PVA    C4238388   6.268   0.413   5.623  0.0599  0.1574  0.2508
  226PVA    H8338389   6.257   0.459   5.523  1.4376  2.4805  1.1000
  226PVA    H8438390   6.372   0.384   5.605 -0.5740 -0.5270 -3.1805
  226PVA    C4338391   6.256   0.525   5.726  0.5922 -0.0746  0.6559
  226PVA    H8538392   6.229   0.488   5.826  2.2493 -1.1146  0.7489
  226PVA    H8638393   6.158   0.572   5.711  0.8295  0.9302  2.0360
  226PVA    C4438394   6.367   0.643   5.743  0.3406  0.0594  0.4817
  226PVA    H8738395   6.397   0.675   5.642 -0.3665  3.1347  1.1457
  226PVA    O1538396   6.476   0.583   5.804 -0.1015 -0.7367 -0.6167
  226PVA    H8838397   6.523   0.516   5.751  0.9733 -1.2713  0.9351
  226PVA    C4538398   6.318   0.761   5.828  0.2544  0.1495  0.5362
  226PVA    H8938399   6.271   0.710   5.913 -1.7521 -3.1399 -2.2849
  226PVA    H9038400   6.227   0.798   5.779  1.9254  0.7671 -2.3475
  226PVA    C4638401   6.427   0.870   5.870  0.4135  0.5081 -0.3904
  226PVA    H9138402   6.485   0.831   5.954 -1.4832 -1.7721 -0.0167
  226PVA    H9238403   6.497   0.895   5.790  1.1416 -0.8025 -0.1988
  226PVA    C4738404   6.355   1.000   5.916  1.0203 -0.0776 -0.7353
  226PVA    H9338405   6.273   0.967   5.981  0.2197 -0.7743 -2.0637
  226PVA    O1638406   6.278   1.047   5.810 -0.1032 -1.1046  0.6376
  226PVA    H9438407   6.208   0.984   5.787  1.5732 -2.6738 -0.5005
  226PVA    C4838408   6.431   1.123   5.991  0.0745 -0.4748 -0.6859
  226PVA    H9538409   6.470   1.103   6.092  0.2189  1.1051 -0.4041
  226PVA    H9638410   6.513   1.156   5.927 -1.0981  3.6770 -0.3654
  226PVA    C4938411   6.348   1.254   6.008  2.0182  0.5399 -0.2630
  226PVA    H9738412   6.243   1.254   6.042  2.4215  4.3768  1.5396
  226PVA    H9838413   6.344   1.304   5.911  2.4495 -1.8974 -1.6129
  226PVA    C5038414   6.417   1.358   6.084 -0.6215 -0.5185 -0.8008
  226PVA    H9938415   6.428   1.307   6.180 -2.9852 -3.1493 -1.7920
  226PVA    O1738416   6.544   1.380   6.031  0.3079  0.0225 -1.3770
  226PVA   H10038417   6.528   1.383   5.935  0.0237  0.5251 -1.3185
  226PVA    C5138418   6.345   1.499   6.100 -0.0482  1.8285  0.4127
  226PVA   H10138419   6.235   1.507   6.104 -0.1564  0.5072  0.5378
  226PVA   H10238420   6.354   1.546   6.001  2.5647 -1.1371 -0.9304
  227PVA     C138421   4.976   2.963   3.217  0.9780  0.1311 -0.5289
  227PVA     H138422   5.018   2.923   3.311  0.7339 -0.9894 -0.8878
  227PVA     H238423   4.867   2.955   3.213  0.9595 -0.3943  0.5321
  227PVA     C238424   5.052   2.865   3.116 -0.9539  0.8514 -0.0570
  227PVA     H338425   5.135   2.832   3.180 -2.1275  1.7848  2.0644
  227PVA     O138426   5.136   2.938   3.031 -0.0250 -0.0760 -0.3393
  227PVA     H438427   5.071   2.992   2.982 -4.5807 -3.2656  1.5591
  227PVA     C338428   4.980   2.724   3.076  1.7217 -0.2986  0.0600
  227PVA     H538429   4.870   2.732   3.082  1.4616 -2.0463 -1.5578
  227PVA     H638430   5.002   2.653   3.157 -0.1134 -1.7575 -0.6317
  227PVA     C438431   5.001   2.662   2.934  0.5486  1.5346  0.0022
  227PVA     H738432   4.972   2.707   2.839  0.6912 -2.0841 -1.9543
  227PVA     H838433   5.107   2.657   2.907  0.7767 -2.5796  0.8725
  227PVA     C538434   4.931   2.518   2.914 -0.2384  0.3980 -0.1842
  227PVA     H938435   4.823   2.514   2.931 -0.8918 -1.2059 -3.7954
  227PVA     O238436   4.999   2.423   2.999 -0.2710  0.6039  0.3905
  227PVA    H1038437   5.030   2.468   3.080  0.9552 -0.2858  0.4364
  227PVA     C638438   4.925   2.464   2.769 -0.4236 -0.5034  0.6416
  227PVA    H1138439   4.859   2.524   2.705  0.7944 -1.7214 -1.8741
  227PVA    H1238440   5.010   2.488   2.705 -3.2733 -1.0886 -3.8193
  227PVA     C738441   4.898   2.319   2.750  0.1501  1.0191 -0.1935
  227PVA    H1338442   4.829   2.286   2.829  1.6534 -1.7865  0.0912
  227PVA    H1438443   4.995   2.267   2.748 -1.4736 -2.2312 -2.6656
  227PVA     C838444   4.806   2.269   2.620 -0.2194 -0.7720  0.4390
  227PVA    H1538445   4.720   2.337   2.621 -1.6275 -2.4849  0.0967
  227PVA     O338446   4.885   2.286   2.503  0.2794 -0.4014 -0.1546
  227PVA    H1638447   4.841   2.250   2.424 -0.0905  0.7620 -0.5002
  227PVA     C938448   4.753   2.119   2.615 -0.2532 -0.3185 -0.2738
  227PVA    H1738449   4.683   2.088   2.694 -2.2613 -0.3585 -1.9798
  227PVA    H1838450   4.843   2.057   2.613  0.5259  0.6965  1.4135
  227PVA    C1038451   4.668   2.048   2.498 -0.2565 -0.3481  0.4021
  227PVA    H1938452   4.576   2.103   2.473  0.7894  1.8370  1.1565
  227PVA    H2038453   4.722   2.053   2.402  0.8094 -0.0510  1.0079
  227PVA    C1138454   4.610   1.905   2.534  0.0356 -0.8561 -0.2027
  227PVA    H2138455   4.537   1.918   2.615 -0.6429  1.7801 -1.1250
  227PVA     O438456   4.728   1.831   2.580 -0.2383  0.1196 -0.9578
  227PVA    H2238457   4.762   1.856   2.667  2.6925 -1.6587 -1.4289
  227PVA    C1238458   4.542   1.820   2.415 -0.0451  0.1759 -0.1948
  227PVA    H2338459   4.589   1.840   2.317  0.5440  1.3510  0.3110
  227PVA    H2438460   4.436   1.844   2.409 -0.2706 -0.9979 -1.3238
  227PVA    C1338461   4.543   1.666   2.427  0.6359 -0.4903  0.1340
  227PVA    H2538462   4.537   1.644   2.535  2.2331  1.1968  0.6174
  227PVA    H2638463   4.644   1.629   2.405  0.5726  0.6229 -2.3567
  227PVA    C1438464   4.438   1.591   2.343  0.8098  0.3741  0.9111
  227PVA    H2738465   4.343   1.645   2.351  0.9031  0.6815  0.0732
  227PVA     O538466   4.471   1.599   2.204 -0.6528  1.1926  0.1648
  227PVA    H2838467   4.399   1.651   2.165  0.1597  2.7432  0.6561
  227PVA    C1538468   4.405   1.444   2.391 -0.0322 -0.0589 -0.4794
  227PVA    H2938469   4.388   1.461   2.499  2.6201 -1.4119  0.2300
  227PVA    H3038470   4.496   1.384   2.397  0.1019  0.1995  0.2175
  227PVA    C1638471   4.286   1.358   2.333 -0.3643 -0.1437  0.2059
  227PVA    H3138472   4.208   1.434   2.341 -0.3629 -0.2882  2.1280
  227PVA    H3238473   4.303   1.319   2.231  0.3199 -0.9002  0.5894
  227PVA    C1738474   4.242   1.233   2.415 -0.2515 -0.5879 -0.4234
  227PVA    H3338475   4.250   1.269   2.519  1.3992  1.4443 -1.2035
  227PVA     O638476   4.346   1.136   2.408  0.7644  0.1940  0.6385
  227PVA    H3438477   4.308   1.054   2.442  0.1976  0.3138  0.3029
  227PVA    C1838478   4.109   1.151   2.371  0.1304 -0.1433  0.0963
  227PVA    H3538479   4.119   1.104   2.273  1.3866 -1.5740  0.8595
  227PVA    H3638480   4.023   1.216   2.349  1.4789  1.1161 -1.7250
  227PVA    C1938481   4.042   1.052   2.469 -0.0882  0.9435 -0.3358
  227PVA    H3738482   4.028   1.090   2.571  1.1054 -0.5534  0.4317
  227PVA    H3838483   4.119   0.975   2.483 -0.9240  0.2814  0.8660
  227PVA    C2038484   3.896   0.964   2.447 -0.4230 -0.5960 -0.5522
  227PVA    H3938485   3.841   1.034   2.382  0.5910  1.1412  0.3878
  227PVA     O738486   3.927   0.843   2.381  0.5158  1.1441  0.0400
  227PVA    H4038487   3.840   0.802   2.363  1.0859  0.7539 -2.1254
  227PVA    C2138488   3.790   0.936   2.579 -0.1972  0.5844  0.7483
  227PVA    H4138489   3.733   1.028   2.597  0.6446  1.9715 -2.8914
  227PVA    H4238490   3.850   0.905   2.666  1.0769  1.8960  0.3754
  227PVA    C2238491   3.689   0.810   2.557  0.2872 -0.5999  0.0031
  227PVA    H4338492   3.635   0.827   2.464  0.3780  0.0164  0.0569
  227PVA    H4438493   3.746   0.716   2.559  3.6192  1.2800  0.0722
  227PVA    C2338494   3.589   0.782   2.688 -0.1550  1.6627 -1.0390
  227PVA    H4538495   3.632   0.798   2.787 -1.3617  2.3692 -0.6056
  227PVA     O838496   3.471   0.867   2.672 -0.6607 -0.1360 -0.2860
  227PVA    H4638497   3.411   0.829   2.606 -0.7107  1.3962 -1.1559
  227PVA    C2438498   3.526   0.633   2.693  0.4722  0.6264 -0.7515
  227PVA    H4738499   3.452   0.646   2.613  0.5948  3.3060 -0.5240
  227PVA    H4838500   3.596   0.553   2.666  1.8741  2.5381 -3.1999
  227PVA    C2538501   3.466   0.601   2.835  0.0472  0.1496 -0.1992
  227PVA    H4938502   3.414   0.691   2.869  0.0748 -0.8133  2.6280
  227PVA    H5038503   3.552   0.582   2.900 -2.8164  2.7154  4.9408
  227PVA    C2638504   3.376   0.468   2.847 -0.9247  0.4598  0.5620
  227PVA    H5138505   3.413   0.394   2.775  1.5896  0.6855  1.5119
  227PVA     O938506   3.246   0.506   2.848 -0.8415  0.0041  0.4044
  227PVA    H5238507   3.196   0.428   2.878 -0.9392 -0.8619 -1.8802
  227PVA    C2738508   3.383   0.385   2.988 -0.0781  0.8507 -0.5657
  227PVA    H5338509   3.328   0.438   3.067  1.1126 -1.4800  2.0095
  227PVA    H5438510   3.483   0.410   3.026  0.3467  0.0146 -1.0834
  227PVA    C2838511   3.353   0.236   2.991  0.6019 -0.5606 -0.1596
  227PVA    H5538512   3.246   0.238   2.965  0.5975 -0.8854 -0.1703
  227PVA    H5638513   3.398   0.176   2.911 -1.5618 -0.6565 -1.3758
  227PVA    C2938514   3.364   0.150   3.123 -1.0659  0.0569 -0.3588
  227PVA    H5738515   3.264   0.148   3.169 -0.3598 -2.1125  1.2730
  227PVA    O1038516   3.461   0.213   3.209 -0.4312  0.4565 -0.4954
  227PVA    H5838517   3.414   0.205   3.294  0.2734  0.7775 -0.0649
  227PVA    C3038518   3.420   0.003   3.104 -0.9461  0.8139 -0.4327
  227PVA    H5938519   3.515   7.675   3.050 -1.5197 -0.8489 -1.1028
  227PVA    H6038520   3.354   7.649   3.026 -1.3120  3.3585 -1.4658
  227PVA    C3138521   3.407   7.590   3.221  0.3550 -0.0192  0.1006
  227PVA    H6138522   3.333   7.510   3.205  0.1273  0.3809 -0.8501
  227PVA    H6238523   3.362   7.636   3.310 -1.7653  1.2940 -1.5540
  227PVA    C3238524   3.546   7.514   3.258  0.3036 -0.9218 -0.0297
  227PVA    H6338525   3.556   7.435   3.183 -1.9874 -1.5640  0.2674
  227PVA    O1138526   3.654   7.603   3.268  0.1381  0.5759 -0.4110
  227PVA    H6438527   3.625   0.007   3.297  0.1148  0.2851  0.5056
  227PVA    C3338528   3.558   7.434   3.403 -0.0611 -0.6131  0.9911
  227PVA    H6538529   3.493   7.479   3.480  1.0355 -1.1874  2.2966
  227PVA    H6638530   3.514   7.335   3.391  0.5880 -0.7078 -0.8005
  227PVA    C3438531   3.700   7.397   3.483  0.2274  0.1069 -0.1497
  227PVA    H6738532   3.782   7.434   3.420 -2.8254 -0.6001 -5.0952
  227PVA    H6838533   3.727   7.291   3.475 -1.9533 -0.3386 -4.0995
  227PVA    C3538534   3.721   7.405   3.644 -0.2836 -0.4304  0.0668
  227PVA    H6938535   3.744   7.507   3.677 -2.3966  0.0953  0.0551
  227PVA    O1238536   3.607   7.369   3.716  0.7945  0.0077 -0.5764
  227PVA    H7038537   3.635   7.349   3.807 -2.2772  5.2215  1.9758
  227PVA    C3638538   3.839   7.341   3.720  0.3491 -0.0418 -0.0282
  227PVA    H7138539   3.814   7.234   3.724 -3.4357  0.7546  2.7188
  227PVA    H7238540   3.923   7.340   3.650 -0.8551  0.4077 -1.5128
  227PVA    C3738541   3.888   7.394   3.863  0.7819 -1.3020  0.0351
  227PVA    H7338542   3.804   7.399   3.933 -0.8598  1.6409 -1.9193
  227PVA    H7438543   3.905   7.502   3.858 -3.0317 -0.6229 -3.5663
  227PVA    C3838544   4.019   7.320   3.924 -0.3933 -0.5446 -0.2300
  227PVA    H7538545   4.095   7.340   3.847 -0.7364  3.7506  0.2962
  227PVA    O1338546   3.985   7.185   3.926  0.2269 -0.8194  0.4384
  227PVA    H7638547   3.965   7.151   3.838  4.9928  1.4220 -1.8843
  227PVA    C3938548   4.068   7.374   4.070  0.2579 -1.7299 -0.0041
  227PVA    H7738549   3.981   7.434   4.100  1.4583 -0.7788  1.7375
  227PVA    H7838550   4.157   7.439   4.066 -0.9913  0.3682  2.9585
  227PVA    C4038551   4.097   7.265   4.179 -0.0644  0.1501 -0.0042
  227PVA    H7938552   4.000   7.215   4.191  0.3303 -0.5863  0.1380
  227PVA    H8038553   4.164   7.187   4.142  0.6159  2.8434 -5.4939
  227PVA    C4138554   4.133   7.316   4.330  0.2270  0.9956  0.2274
  227PVA    H8138555   4.130   7.425   4.342  0.5210  0.9858  0.4006
  227PVA    O1438556   4.272   7.282   4.344 -0.2288  0.3607  0.6574
  227PVA    H8238557   4.301   7.333   4.266 -0.8744  0.5258  0.5216
  227PVA    C4238558   4.064   7.248   4.463  0.4201 -0.2425 -0.5436
  227PVA    H8338559   3.965   7.287   4.490  0.0043 -2.9575  2.3461
  227PVA    H8438560   4.052   7.139   4.464  1.4635 -0.3772  0.9197
  227PVA    C4338561   4.122   7.251   4.611  1.3245  0.3538  0.3830
  227PVA    H8538562   4.113   7.358   4.635 -3.9658 -0.0352  1.2687
  227PVA    H8638563   4.228   7.227   4.600  0.9439 -1.1212 -0.2032
  227PVA    C4438564   4.056   7.160   4.731 -1.2434  0.3528  0.5563
  227PVA    H8738565   3.949   7.180   4.742 -1.2873  0.7016 -0.3709
  227PVA    O1538566   4.050   7.034   4.691 -0.3347 -0.2286 -0.4069
  227PVA    H8838567   4.130   7.022   4.636 -0.2082  2.5807 -0.9916
  227PVA    C4538568   4.122   7.163   4.881 -1.3470 -0.3182 -0.1315
  227PVA    H8938569   4.126   7.266   4.919 -3.2654  0.3402 -1.5740
  227PVA    H9038570   4.227   7.134   4.879 -0.6431  1.6292  2.7139
  227PVA    C4638571   4.049   7.095   5.004 -0.8301  0.3951 -0.6913
  227PVA    H9138572   3.950   7.142   5.006 -1.4328 -0.7060  3.2954
  227PVA    H9238573   4.041   6.987   4.989 -0.3639 -0.0029  1.5579
  227PVA    C4738574   4.130   7.108   5.145  0.1426 -0.0399  0.4106
  227PVA    H9338575   4.238   7.089   5.135  0.6036  2.4289 -0.1300
  227PVA    O1638576   4.105   7.242   5.188  0.2825 -0.3412  0.7066
  227PVA    H9438577   4.071   7.230   5.278 -3.1814  0.5581 -0.2948
  227PVA    C4838578   4.071   7.006   5.248 -0.3562 -1.0611  0.0560
  227PVA    H9538579   4.091   6.905   5.212 -2.4587 -1.0760 -1.2490
  227PVA    H9638580   3.964   7.026   5.255 -0.5694 -2.2145  0.3143
  227PVA    C4938581   4.121   7.033   5.400 -0.0655  0.0407 -0.2920
  227PVA    H9738582   4.216   6.979   5.407 -0.1397  0.1092  2.0369
  227PVA    H9838583   4.144   7.138   5.422 -0.2497  0.1237 -0.4806
  227PVA    C5038584   4.027   6.969   5.521 -0.1688 -0.0162 -0.1375
  227PVA    H9938585   3.956   6.896   5.480  1.0566 -2.8787  2.4289
  227PVA    O1738586   3.932   7.066   5.571  0.0739  0.0152 -0.1053
  227PVA   H10038587   3.855   7.013   5.600  1.0353 -0.8685  0.9486
  227PVA    C5138588   4.102   6.904   5.642 -0.7103 -0.1579 -0.9201
  227PVA   H10138589   4.148   6.812   5.604 -2.1594 -1.0886 -0.4661
  227PVA   H10238590   4.163   6.993   5.663 -1.2414 -0.3282  1.6310
  228PVA     C138591   6.236   2.027   7.215  0.5113 -0.0965 -0.7444
  228PVA     H138592   6.184   2.104   7.158 -0.0585  1.3815  1.6177
  228PVA     H238593   6.344   2.040   7.199  0.6336  1.0885  0.7926
  228PVA     C238594   6.211   2.040   7.366  0.0284  0.1038  0.3781
  228PVA     H338595   6.281   1.979   7.424  0.2806 -0.2599 -0.2940
  228PVA     O138596   6.077   2.000   7.384 -0.6889 -0.0298 -0.5069
  228PVA     H438597   6.074   1.944   7.464 -1.6499 -0.5880 -0.9157
  228PVA     C338598   6.235   2.185   7.432  0.2737  0.3600  0.2459
  228PVA     H538599   6.334   2.228   7.413  0.6425  0.0614  1.3999
  228PVA     H638600   6.172   2.259   7.380 -1.8479 -0.7772  1.0685
  228PVA     C438601   6.201   2.207   7.577  0.1915 -0.9144 -0.2804
  228PVA     H738602   6.104   2.168   7.611 -0.5983  2.5535  2.0372
  228PVA     H838603   6.261   2.139   7.638 -3.0116 -1.3962  2.6626
  228PVA     C538604   6.204   2.353   7.646 -0.3393 -0.4133 -0.3337
  228PVA     H938605   6.301   2.400   7.625  0.7879 -1.6995  1.6179
  228PVA     O238606   6.113   2.420   7.570 -0.7554  0.4585  0.7631
  228PVA    H1038607   6.098   2.504   7.617 -1.1451  0.1998  1.1127
  228PVA     C638608   6.177   2.365   7.802  0.1447  1.3253 -0.0225
  228PVA    H1138609   6.275   2.387   7.846  0.5527  2.7626 -1.5382
  228PVA    H1238610   6.135   2.269   7.834 -2.5559  1.8996 -1.5037
  228PVA     C738611   6.067   2.458   7.859 -0.7024  0.2940  1.4165
  228PVA    H1338612   5.978   2.419   7.808  0.3740 -2.1377  1.2397
  228PVA    H1438613   6.075   2.561   7.822 -2.6764 -1.2898 -4.3990
  228PVA     C838614   6.062   2.468   8.017 -0.2643 -0.1734 -0.5262
  228PVA    H1538615   6.066   2.364   8.051  2.0042 -0.7976 -2.4672
  228PVA     O338616   6.181   2.538   8.052 -0.3903 -0.4552  0.0121
  228PVA    H1638617   6.252   2.501   7.996  0.5098  2.1884 -0.7260
  228PVA     C938618   5.935   2.545   8.073 -0.8725 -0.1435  0.8926
  228PVA    H1738619   5.848   2.546   8.006  2.2966 -1.9063 -3.7697
  228PVA    H1838620   5.958   2.652   8.072 -2.6823  0.2983  1.8665
  228PVA    C1038621   5.906   2.521   0.127 -0.1743  0.4959  0.2764
  228PVA    H1938622   5.994   2.479   0.178 -0.5012 -3.9668 -2.3069
  228PVA    H2038623   5.867   2.610   0.177 -0.5428 -0.4070  1.6415
  228PVA    C1138624   5.796   2.424   0.182  0.6115 -1.9904  0.8889
  228PVA    H2138625   5.697   2.444   0.139  0.5959  0.0542  1.7567
  228PVA     O438626   5.833   2.294   0.130 -0.5174 -0.3012  0.1731
  228PVA    H2238627   5.880   2.241   0.197 -0.8108 -0.8636 -0.0582
  228PVA    C1238628   5.750   2.409   0.334  0.1233  0.2120  0.1832
  228PVA    H2338629   5.835   2.379   0.396 -0.3328  0.5823  1.0211
  228PVA    H2438630   5.685   2.492   0.366  0.3388  0.1488  0.7977
  228PVA    C1338631   5.635   2.293   0.337 -0.7209 -0.1862  0.9175
  228PVA    H2538632   5.685   2.214   0.280  0.1244  1.2557 -0.4039
  228PVA    H2638633   5.535   2.314   0.298 -1.9011 -1.5426  2.9729
  228PVA    C1438634   5.612   2.240   0.481  0.4482 -0.4655  0.0871
  228PVA    H2738635   5.705   2.197   0.519  1.2629  1.5737  0.5085
  228PVA     O538636   5.589   2.352   0.559  0.4503 -0.3863 -0.5808
  228PVA    H2838637   5.639   2.328   0.639 -2.0482 -3.3864  0.3103
  228PVA    C1538638   5.500   2.134   0.495 -0.4965  0.5906 -0.8222
  228PVA    H2938639   5.451   2.119   0.593  1.9332 -2.2149  0.1375
  228PVA    H3038640   5.428   2.149   0.415 -2.8304 -1.2086  0.7845
  228PVA    C1638641   5.558   1.985   0.474 -1.3369 -0.8863 -0.6042
  228PVA    H3138642   5.574   1.980   0.366 -0.7137  0.4364 -0.5873
  228PVA    H3238643   5.643   1.969   0.542  1.1270 -2.1641 -3.7486
  228PVA    C1738644   5.465   1.875   0.498 -0.5553 -0.7244 -0.3389
  228PVA    H3338645   5.483   1.854   0.604 -2.7336 -2.2514 -0.1995
  228PVA     O638646   5.336   1.920   0.470  0.2156  0.4951  0.1500
  228PVA    H3438647   5.340   1.981   0.395  1.9570  1.3440  0.8562
  228PVA    C1838648   5.491   1.730   0.439  0.3956 -0.7173 -0.9165
  228PVA    H3538649   5.586   1.686   0.472 -2.0453 -3.1747  3.7576
  228PVA    H3638650   5.485   1.732   0.329  0.9071 -0.1479 -0.9382
  228PVA    C1938651   5.376   1.632   0.465  0.5619 -0.7584  0.6403
  228PVA    H3738652   5.352   1.657   0.569  0.6465  2.8686 -0.0732
  228PVA    H3838653   5.280   1.653   0.416 -0.6379  2.3961  3.8745
  228PVA    C2038654   5.394   1.475   0.463  1.2018  0.8464  0.4122
  228PVA    H3938655   5.445   1.460   0.559  2.7958 -1.2872 -0.6937
  228PVA     O738656   5.482   1.423   0.372  0.3733 -0.1092  0.3269
  228PVA    H4038657   5.445   1.339   0.339  2.1448  0.1441 -2.7320
  228PVA    C2138658   5.259   1.395   0.471  0.4171  0.2146  0.3838
  228PVA    H4138659   5.180   1.436   0.407  0.7591  2.2029  1.1414
  228PVA    H4238660   5.209   1.418   0.566 -2.9848  1.0931 -1.4520
  228PVA    C2238661   5.267   1.235   0.448  0.6527 -0.4004  2.1763
  228PVA    H4338662   5.352   1.189   0.397 -1.6211 -4.2541  1.4205
  228PVA    H4438663   5.271   1.180   0.544 -1.3670  1.0279  3.1486
  228PVA    C2338664   5.141   1.179   0.362  0.5442  0.3935 -0.3351
  228PVA    H4538665   5.050   1.228   0.400 -1.6745 -2.7434 -1.1568
  228PVA     O838666   5.161   1.204   0.229  0.4280 -0.1958  0.7642
  228PVA    H4638667   5.083   1.188   0.173  2.2288  2.2583 -2.8171
  228PVA    C2438668   5.105   1.032   0.379  0.1645  0.5795 -0.2902
  228PVA    H4738669   5.190   0.962   0.369 -0.2836  0.0231 -0.2277
  228PVA    H4838670   5.075   1.009   0.482  1.7347  1.1596  0.3364
  228PVA    C2538671   5.022   0.971   0.255 -0.3578  0.4215 -1.0604
  228PVA    H4938672   5.086   0.950   0.169 -1.1193 -0.1794 -1.4916
  228PVA    H5038673   4.948   1.047   0.226 -0.9621  0.9876  1.6640
  228PVA    C2638674   4.947   0.832   0.275 -0.6987 -0.6019  0.1542
  228PVA    H5138675   5.016   0.751   0.304  2.6340 -0.4554 -5.8173
  228PVA     O938676   4.849   0.848   0.371 -0.9601 -0.3513  0.3248
  228PVA    H5238677   4.894   0.879   0.451  1.2806 -0.7603 -0.6935
  228PVA    C2738678   4.885   0.772   0.141  0.0516  0.1662  0.8437
  228PVA    H5338679   4.958   0.773   0.059 -1.2939  2.5933 -0.4370
  228PVA    H5438680   4.804   0.841   0.113 -0.4581 -1.6811 -2.9604
  228PVA    C2838681   4.820   0.629   0.158  0.5455  0.3664 -1.1509
  228PVA    H5538682   4.740   0.656   0.228 -2.3473 -3.0665 -2.8118
  228PVA    H5638683   4.891   0.558   0.202  1.5935  2.1037  0.0741
  228PVA    C2938684   4.767   0.579   0.023 -0.0586 -0.6718 -0.9154
  228PVA    H5738685   4.854   0.595   8.056  1.5144  0.8284  1.4106
  228PVA    O1038686   4.669   0.673   8.079  0.3911  0.2067  0.3740
  228PVA    H5838687   4.708   0.732   8.012  1.5441 -0.2493  0.6329
  228PVA    C3038688   4.721   0.429   0.024  0.2955  0.2881 -1.4311
  228PVA    H5938689   4.654   0.400   0.106  4.7814 -2.4338  1.7241
  228PVA    H6038690   4.639   0.432   8.049 -2.0719  4.0298  1.0265
  228PVA    C3138691   4.826   0.318   8.079  0.0082 -0.7643 -0.3122
  228PVA    H6138692   4.903   0.294   0.056  2.4254  2.2397 -1.5858
  228PVA    H6238693   4.880   0.345   7.987  0.7394 -0.4535  0.1964
  228PVA    C3238694   4.748   0.188   8.047  0.6371 -0.6483 -1.2719
  228PVA    H6338695   4.684   0.185   7.958 -2.2093 -0.4781  0.6301
  228PVA    O1138696   4.680   0.140   0.066 -0.1384 -0.3465 -0.5314
  228PVA    H6438697   4.702   0.182   0.151 -0.6657  0.0211 -0.5746
  228PVA    C3338698   4.845   0.070   8.004 -0.0527  0.5565  0.0826
  228PVA    H6538699   4.887   0.034   0.002  1.4424 -0.5726 -0.9521
  228PVA    H6638700   4.928   0.101   7.939 -1.1882 -1.5826 -2.5763
  228PVA    C3438701   4.791   7.644   7.915  0.1014  0.4243  0.2974
  228PVA    H6738702   4.735   7.590   7.992 -0.5087 -0.4173 -0.7127
  228PVA    H6838703   4.716   7.677   7.842 -1.5139 -2.6613  0.3970
  228PVA    C3538704   4.869   7.537   7.831 -0.2402 -0.1107  0.3761
  228PVA    H6938705   4.808   7.456   7.871 -1.8676  1.2720  0.7888
  228PVA    O1238706   4.993   7.510   7.866 -0.3817  0.2720  0.7695
  228PVA    H7038707   5.038   7.553   7.792 -1.5982  1.8552  0.8912
  228PVA    C3638708   4.867   7.524   7.672 -0.9213  0.4878 -0.3924
  228PVA    H7138709   4.769   7.553   7.632 -1.9506 -0.1302  1.5279
  228PVA    H7238710   4.955   7.569   7.625 -2.2064  1.6543 -1.7433
  228PVA    C3738711   4.882   7.374   7.618  0.7155  0.3596 -0.1088
  228PVA    H7338712   4.805   7.320   7.675  2.3419  0.5453  2.4353
  228PVA    H7438713   4.973   7.324   7.654 -0.5073 -1.5181  0.5055
  228PVA    C3838714   4.877   7.359   7.466 -0.2074 -0.0581 -0.2632
  228PVA    H7538715   4.963   7.417   7.428  0.0973  1.2905  2.2785
  228PVA    O1338716   4.755   7.429   7.425  0.7826 -1.4231  0.1645
  228PVA    H7638717   4.737   7.417   7.330 -3.4384  2.2629  0.2090
  228PVA    C3938718   4.874   7.213   7.411 -1.3392 -0.2573  1.7721
  228PVA    H7738719   4.800   7.158   7.470 -3.2599  2.1834  1.8052
  228PVA    H7838720   4.975   7.177   7.436 -1.0328 -0.7681 -0.0800
  228PVA    C4038721   4.845   7.211   7.255 -0.6194  0.2534 -0.1705
  228PVA    H7938722   4.921   7.280   7.215 -3.5612  2.5745 -2.2281
  228PVA    H8038723   4.748   7.259   7.236 -1.1121 -1.2177 -1.5601
  228PVA    C4138724   4.848   7.075   7.185  0.9766 -0.2127 -0.9266
  228PVA    H8138725   4.781   7.011   7.243  1.2374 -1.7123 -2.2077
  228PVA    O1438726   4.967   7.002   7.195  0.3485  0.3291  0.2518
  228PVA    H8238727   4.963   6.907   7.172  2.4962  0.2124  0.1344
  228PVA    C4238728   4.797   7.090   7.030  0.2831  0.0517 -0.1142
  228PVA    H8338729   4.776   7.197   7.014  0.9253  0.4184  1.3197
  228PVA    H8438730   4.893   7.085   6.976  1.0018  1.0114  1.0092
  228PVA    C4338731   4.683   6.987   6.976 -0.1068  0.3148  0.0665
  228PVA    H8538732   4.591   7.020   7.026 -0.1529 -2.6933  2.2617
  228PVA    H8638733   4.688   6.882   7.008 -1.8291  1.7289  6.6460
  228PVA    C4438734   4.658   7.011   6.822  0.0333  0.6172 -1.7989
  228PVA    H8738735   4.638   7.116   6.797  4.5770  1.3713 -3.0724
  228PVA    O1538736   4.780   7.010   6.750 -0.7633  0.0075 -1.2961
  228PVA    H8838737   4.766   7.023   6.654  1.3131 -2.2066 -1.9968
  228PVA    C4538738   4.545   6.917   6.763  0.1204 -0.3284  0.1566
  228PVA    H8938739   4.452   6.960   6.805  1.3411  1.8964  0.7635
  228PVA    H9038740   4.551   6.811   6.789 -0.1211 -0.2609  0.5017
  228PVA    C4638741   4.531   6.916   6.606  0.5048 -0.1240  0.5824
  228PVA    H9138742   4.506   7.021   6.587  1.1446  0.5307  2.9721
  228PVA    H9238743   4.632   6.899   6.565  1.3025  1.2821  1.8674
  228PVA    C4738744   4.437   6.822   6.541 -0.2444 -0.1008  1.5197
  228PVA    H9338745   4.339   6.859   6.575  0.8422  1.6602  2.8928
  228PVA    O1638746   4.463   6.686   6.568 -0.0421 -0.1141  0.1331
  228PVA    H9438747   4.550   6.666   6.529 -1.2470 -0.4902 -2.5701
  228PVA    C4838748   4.440   6.842   6.379 -0.2070  0.3292 -0.2678
  228PVA    H9538749   4.423   6.948   6.354 -5.5012 -0.2741 -0.4049
  228PVA    H9638750   4.541   6.814   6.346 -0.2787  0.7165 -0.8340
  228PVA    C4938751   4.333   6.741   6.307 -0.0399  0.3615  1.2623
  228PVA    H9738752   4.246   6.725   6.372  0.7043  0.5474  2.3250
  228PVA    H9838753   4.380   6.646   6.280 -0.5774  0.3768  0.2371
  228PVA    C5038754   4.286   6.801   6.170 -0.3652 -0.3960 -0.9231
  228PVA    H9938755   4.248   6.898   6.204  3.3937  0.9147 -0.0621
  228PVA    O1738756   4.384   6.811   6.070 -0.1698 -0.0137  0.1676
  228PVA   H10038757   4.334   6.806   5.986  0.6835 -2.4205 -0.2815
  228PVA    C5138758   4.160   6.725   6.109 -0.3825  0.7961 -1.3745
  228PVA   H10138759   4.093   6.687   6.187 -1.4095 -0.4274 -2.7669
  228PVA   H10238760   4.193   6.639   6.049 -1.1298 -1.7986  1.6813
  229PVA     C138761   6.537   1.689   7.201  0.3554 -0.0761 -0.0020
  229PVA     H138762   6.560   1.730   7.300 -0.1465 -1.7061  0.8366
  229PVA     H238763   6.631   1.688   7.145  1.3381 -0.4000  1.5848
  229PVA     C238764   6.510   1.537   7.210 -1.2925  0.2276  0.0985
  229PVA     H338765   6.451   1.508   7.122  0.4930 -3.4366 -0.0511
  229PVA     O138766   6.443   1.521   7.332  0.1849  0.0843  0.4110
  229PVA     H438767   6.431   1.426   7.349  1.4260  0.0082  1.0307
  229PVA     C338768   6.640   1.449   7.194 -0.2529 -0.0428  0.2422
  229PVA     H538769   6.697   1.481   7.283  4.7721 -0.2456 -2.5244
  229PVA     H638770   6.696   1.510   7.121 -2.0691  4.1425  1.9705
  229PVA     C438771   6.614   1.299   7.169  0.1003 -0.3176  0.0517
  229PVA     H738772   6.533   1.269   7.237  0.0272  2.9420  1.5719
  229PVA     H838773   6.581   1.311   7.065 -0.5976  0.3399  0.3421
  229PVA     C538774   6.726   1.194   7.167 -1.1159  0.0210 -0.1992
  229PVA     H938775   6.801   1.210   7.089  0.5338 -2.0156  0.8875
  229PVA     O238776   6.779   1.188   7.304  0.8368  0.4719 -1.7607
  229PVA    H1038777   6.859   1.133   7.297 -1.0564 -2.5267 -1.6219
  229PVA     C638778   6.677   1.051   7.149  0.1875  0.3488  0.2118
  229PVA    H1138779   6.637   1.032   7.249  6.6501  0.1669  3.2832
  229PVA    H1238780   6.608   1.044   7.063  1.3073  3.6459 -1.1304
  229PVA     C738781   6.793   0.949   7.143 -0.4380  1.0098  1.1783
  229PVA    H1338782   6.877   0.986   7.202 -0.8854  2.4482  0.9550
  229PVA    H1438783   6.815   0.961   7.036 -3.2065  0.0185  0.4110
  229PVA     C838784   6.782   0.800   7.179  0.0686 -0.4196  0.2896
  229PVA    H1538785   6.718   0.744   7.110  1.1359 -0.6084 -0.5819
  229PVA     O338786   6.736   0.785   7.309 -0.2341 -0.8690 -0.2654
  229PVA    H1638787   6.810   0.815   7.365 -2.1592 -1.2626  2.7324
  229PVA     C938788   6.916   0.729   7.185  0.1486  0.2586 -0.3322
  229PVA    H1738789   6.976   0.756   7.097  2.7396  1.2696  1.6205
  229PVA    H1838790   6.961   0.782   7.270 -2.4866 -1.5237  2.3566
  229PVA    C1038791   6.903   0.571   7.208  0.2080  0.3196 -0.0245
  229PVA    H1938792   6.910   0.573   7.317  0.8594  0.2281 -0.0612
  229PVA    H2038793   6.804   0.530   7.185  1.8559 -3.1494 -1.8329
  229PVA    C1138794   6.994   0.472   7.126 -0.0908  0.0811  0.3082
  229PVA    H2138795   6.971   0.474   7.019 -1.3234 -3.9916  0.3126
  229PVA     O438796   7.130   0.514   7.150  0.5178  0.2316  1.7789
  229PVA    H2238797   7.124   0.538   7.244  1.4695  1.0806  1.6409
  229PVA    C1238798   6.969   0.321   7.176 -0.6085 -0.5949  0.3142
  229PVA    H2338799   6.985   0.312   7.285 -0.4521 -1.6958  0.2111
  229PVA    H2438800   6.862   0.299   7.174 -0.8228 -0.0501  2.6603
  229PVA    C1338801   7.040   0.222   7.083 -0.3565  0.0538 -0.8586
  229PVA    H2538802   7.138   0.254   7.045  1.8062 -1.4309  2.9183
  229PVA    H2638803   6.980   0.230   6.991 -0.3382 -0.1838 -0.8916
  229PVA    C1438804   7.052   0.071   7.131  0.0972 -0.0316 -0.6242
  229PVA    H2738805   7.115   0.089   7.219  1.4059 -2.9380 -0.8633
  229PVA     O538806   7.108   7.674   7.041 -0.2456 -0.2838 -0.3018
  229PVA    H2838807   7.076   0.004   6.950 -1.2156 -3.2854 -0.5586
  229PVA    C1538808   6.906   0.010   7.169 -1.0253 -0.6357  0.4435
  229PVA    H2938809   6.863   0.065   7.254 -1.8350  1.8489 -1.4518
  229PVA    H3038810   6.854   0.045   7.079  2.6157 -0.2917 -1.6951
  229PVA    C1638811   6.888   7.539   7.179 -0.0746  0.1240  0.1020
  229PVA    H3138812   6.928   7.480   7.095  3.4220  3.9778 -1.2748
  229PVA    H3238813   6.781   7.523   7.196  0.1108 -0.2882  0.9349
  229PVA    C1738814   6.954   7.462   7.306 -0.5688 -0.8510  0.2622
  229PVA    H3338815   7.024   7.526   7.361 -0.0102  1.7978 -3.1854
  229PVA     O638816   7.034   7.355   7.253  0.0487  0.1980  0.2530
  229PVA    H3438817   7.078   7.319   7.331 -0.7703  2.2175  1.7491
  229PVA    C1838818   6.846   7.401   7.397  0.4408  0.0204 -0.5744
  229PVA    H3538819   6.777   7.470   7.447 -0.8352 -2.3523  1.1382
  229PVA    H3638820   6.786   7.336   7.332  0.8403 -3.4179  2.1530
  229PVA    C1938821   6.902   7.314   7.498 -0.0091  0.0261 -0.4523
  229PVA    H3738822   6.999   7.361   7.520  1.8621 -3.2783 -0.9624
  229PVA    H3838823   6.929   7.221   7.446 -4.7580 -1.4072 -0.8241
  229PVA    C2038824   6.840   7.277   7.632 -0.2074 -0.9914 -0.2459
  229PVA    H3938825   6.892   7.190   7.673  0.0917  0.6174  3.1825
  229PVA     O738826   6.702   7.236   7.605 -1.3228  0.5374 -0.3738
  229PVA    H4038827   6.645   7.315   7.607 -2.6277 -0.3581  1.8650
  229PVA    C2138828   6.854   7.390   7.750  1.1358 -1.4460  0.4249
  229PVA    H4138829   6.954   7.431   7.771  0.3476  1.2679 -0.6521
  229PVA    H4238830   6.820   7.475   7.690  0.7282 -1.4954  0.5799
  229PVA    C2238831   6.756   7.378   7.872 -0.0713 -0.4120  0.5834
  229PVA    H4338832   6.652   7.376   7.839 -0.4722  4.0800  0.9183
  229PVA    H4438833   6.778   7.276   7.905 -0.0835 -1.9275 -3.5843
  229PVA    C2338834   6.782   7.475   7.995  0.6429 -0.0086  1.1193
  229PVA    H4538835   6.806   7.409   8.080 -1.7494 -1.2862  0.8944
  229PVA     O838836   6.904   7.547   7.970  0.3156 -0.7098  0.9361
  229PVA    H4638837   6.955   7.529   8.051  1.3398  0.9220  0.6953
  229PVA    C2438838   6.665   7.579   8.039 -0.2425  0.0259  0.1636
  229PVA    H4738839   6.598   7.592   7.953  3.7611  2.2452 -3.0128
  229PVA    H4838840   6.620   7.524   0.025  0.4788 -2.8827 -1.2270
  229PVA    C2538841   6.676   0.027   0.007 -0.0942 -0.7371  0.4360
  229PVA    H4938842   6.714   0.100   8.032 -0.7980  2.4886  3.1060
  229PVA    H5038843   6.747   0.025   0.091  0.4402  0.0493  0.0186
  229PVA    C2638844   6.544   0.087   0.043 -0.0779 -0.0070  0.3716
  229PVA    H5138845   6.481   0.047   8.060  2.4448 -1.1963 -1.1520
  229PVA     O938846   6.511   0.024   0.165  0.4888  0.6423  1.0626
  229PVA    H5238847   6.488   0.092   0.231  1.1775  1.0787  0.8720
  229PVA    C2738848   6.517   0.236   0.043  0.6019 -0.2179  0.8910
  229PVA    H5338849   6.532   0.293   8.048 -1.7813  1.1352  1.2494
  229PVA    H5438850   6.592   0.276   0.112 -1.0283  0.8625  2.1220
  229PVA    C2838851   6.384   0.282   0.114 -1.0147 -0.7746 -0.4363
  229PVA    H5538852   6.378   0.217   0.202 -3.3097  0.0045  0.0591
  229PVA    H5638853   6.420   0.382   0.142  1.5373 -0.9563 -2.6489
  229PVA    C2938854   6.246   0.267   0.043 -0.2621 -0.8532 -0.5966
  229PVA    H5738855   6.268   0.179   8.078  3.4099 -0.6177  0.1406
  229PVA    O1038856   6.217   0.390   8.068  0.4498  0.1902 -0.3730
  229PVA    H5838857   6.237   0.450   0.045  1.0008  2.8998 -2.5461
  229PVA    C3038858   6.123   0.246   0.140 -0.1598 -0.0662  0.6232
  229PVA    H5938859   6.111   0.336   0.202 -0.3437  1.4423 -1.5177
  229PVA    H6038860   6.032   0.236   0.080 -0.8271 -7.6687  1.8132
  229PVA    C3138861   6.100   0.106   0.210 -1.1325  0.3835 -0.2781
  229PVA    H6138862   6.168   0.079   0.293 -2.7112 -3.1473  0.0470
  229PVA    H6238863   6.149   0.032   0.145 -1.2527 -2.0086  2.1586
  229PVA    C3238864   5.958   0.066   0.262  0.1910 -0.5237  0.2761
  229PVA    H6338865   5.941   0.157   0.321 -0.2536  0.2842 -1.0628
  229PVA    O1138866   5.868   0.056   0.141 -0.0889 -0.5395 -0.2463
  229PVA    H6438867   5.782   0.075   0.184  0.1703  3.6014 -1.1451
  229PVA    C3338868   5.956   7.622   0.343  0.1045 -0.1191 -0.2060
  229PVA    H6538869   5.852   7.589   0.332 -0.0878 -0.9755  3.1071
  229PVA    H6638870   6.035   7.556   0.304 -0.5018 -0.7581 -0.3750
  229PVA    C3438871   5.987   7.649   0.497 -0.6387  0.9927 -0.1099
  229PVA    H6738872   6.090   0.003   0.492  2.0593 -4.9061  1.2097
  229PVA    H6838873   5.915   0.043   0.520 -1.6638 -0.5599  2.3373
  229PVA    C3538874   6.001   7.522   0.587  0.8954  0.6063  0.4920
  229PVA    H6938875   6.046   7.450   0.517  2.5091  1.4175  0.6405
  229PVA    O1238876   6.082   7.531   0.702 -0.6807 -0.0768  0.2144
  229PVA    H7038877   6.071   7.618   0.745  2.6767 -0.7709  2.8979
  229PVA    C3638878   5.858   7.460   0.625 -1.0056  0.1984  0.4000
  229PVA    H7138879   5.885   7.354   0.635 -4.6256 -0.8835 -0.0511
  229PVA    H7238880   5.775   7.445   0.555  0.7968 -6.0546 -0.9781
  229PVA    C3738881   5.814   7.504   0.764  0.1017 -0.7502  0.6706
  229PVA    H7338882   5.783   7.608   0.753 -0.7958 -1.2192 -2.2972
  229PVA    H7438883   5.897   7.494   0.835 -0.1241 -0.3042  1.0047
  229PVA    C3838884   5.693   7.421   0.823  0.0261  0.6382  1.3515
  229PVA    H7538885   5.735   7.321   0.807 -0.1028  0.8403 -0.4392
  229PVA    O1338886   5.573   7.438   0.750 -0.5860 -0.4227 -0.1864
  229PVA    H7638887   5.515   7.368   0.714 -1.7476  1.3822 -2.1291
  229PVA    C3938888   5.672   7.453   0.980 -0.7783  0.4078 -0.4254
  229PVA    H7738889   5.669   7.557   1.014 -1.2478  0.2341  0.0720
  229PVA    H7838890   5.752   7.403   1.035  0.8620  2.8330 -0.4822
  229PVA    C4038891   5.538   7.394   1.040  0.1315  0.3767 -0.2354
  229PVA    H7938892   5.498   7.307   0.986 -3.9560  2.3576 -0.8605
  229PVA    H8038893   5.453   7.461   1.020  0.0589  0.4832  0.4245
  229PVA    C4138894   5.567   7.339   1.182 -1.0343  1.9336 -0.2407
  229PVA    H8138895   5.647   7.393   1.236  1.6852 -2.7175  0.9749
  229PVA    O1438896   5.619   7.208   1.159 -0.3898  0.5593  0.1219
  229PVA    H8238897   5.601   7.174   1.070 -4.9553 -0.7623  1.2892
  229PVA    C4238898   5.439   7.336   1.282 -0.3159  1.4695  0.0515
  229PVA    H8338899   5.394   7.435   1.263 -0.8815  1.6100  1.9278
  229PVA    H8438900   5.369   7.258   1.250 -1.7509  3.3359 -1.7149
  229PVA    C4338901   5.492   7.341   1.424 -0.7351 -0.9893 -0.3265
  229PVA    H8538902   5.582   7.404   1.417 -1.6527  0.1867 -2.8641
  229PVA    H8638903   5.521   7.242   1.460  3.8292  0.4339  0.5359
  229PVA    C4438904   5.384   7.389   1.529 -0.4271  0.8716  0.0996
  229PVA    H8738905   5.295   7.325   1.526  0.9390 -1.1431  0.6800
  229PVA    O1538906   5.346   7.523   1.517  0.5335  0.2305 -0.0766
  229PVA    H8838907   5.328   7.542   1.423  0.1163  1.9891  0.3137
  229PVA    C4538908   5.442   7.382   1.669  0.4680  0.2784 -0.8037
  229PVA    H8938909   5.487   7.284   1.690  0.1756  0.5600  1.3376
  229PVA    H9038910   5.525   7.452   1.683 -1.1454  2.2218 -0.5716
  229PVA    C4638911   5.333   7.409   1.781 -0.7814 -0.2451  0.9684
  229PVA    H9138912   5.381   7.408   1.880  1.5112  1.2553 -0.0422
  229PVA    H9238913   5.261   7.326   1.784 -1.9630  0.7571  1.0788
  229PVA    C4738914   5.234   7.531   1.781  0.4011  0.3923  0.5372
  229PVA    H9338915   5.173   7.518   1.690  3.8165 -3.3782 -1.5581
  229PVA    O1638916   5.318   7.645   1.752 -0.3595  0.0728  0.2736
  229PVA    H9438917   5.357   7.627   1.665  1.2861 -0.7309  1.1230
  229PVA    C4838918   5.173   7.566   1.911 -0.6499 -0.0199 -0.1003
  229PVA    H9538919   5.252   7.558   1.987 -0.9751 -3.0175  0.0306
  229PVA    H9638920   5.144   7.672   1.909  0.2544  0.2935 -3.7923
  229PVA    C4938921   5.043   7.489   1.941 -0.6325 -0.9020  1.3984
  229PVA    H9738922   5.015   7.485   2.047 -0.3719 -2.7272  1.4230
  229PVA    H9838923   5.055   7.382   1.918 -0.6917 -1.4059  3.4812
  229PVA    C5038924   4.913   7.549   1.888 -0.3635  1.2978  0.4345
  229PVA    H9938925   4.897   7.528   1.781 -1.9438  1.8730  0.5382
  229PVA    O1738926   4.893   0.005   1.911 -0.0510  0.3755 -0.3343
  229PVA   H10038927   4.971   0.032   1.964 -0.1784 -0.4923  0.3141
  229PVA    C5138928   4.791   7.463   1.917  1.1322  0.4396  0.3160
  229PVA   H10138929   4.779   7.470   2.026 -1.1342 -1.1530  0.2344
  229PVA   H10238930   4.816   7.358   1.897  2.4651  0.4510  1.7553
  230PVA     C138931   3.066   6.512   5.950  0.4040  0.7362 -0.2990
  230PVA     H138932   2.992   6.456   6.009  1.3368  0.2037  0.3916
  230PVA     H238933   3.060   6.606   6.007 -1.0547  1.0509 -0.9187
  230PVA     C238934   3.009   6.542   5.810 -0.7638 -0.4242  0.2539
  230PVA     H338935   3.072   6.613   5.754  0.6782 -1.4112  0.5574
  230PVA     O138936   3.009   6.416   5.741  0.3046  0.4829 -0.0186
  230PVA     H438937   3.092   6.422   5.691  1.1401 -0.0501  1.2307
  230PVA     C338938   2.863   6.608   5.814 -0.1959 -0.0033 -1.1624
  230PVA     H538939   2.861   6.704   5.866 -3.2669  0.3576 -1.7419
  230PVA     H638940   2.800   6.539   5.872  1.4931 -2.2171 -1.8159
  230PVA     C438941   2.800   6.638   5.670 -0.5153 -0.5309  0.6736
  230PVA     H738942   2.865   6.699   5.607 -1.4975 -1.6336 -1.5334
  230PVA     H838943   2.780   6.544   5.617 -1.1094  1.9729 -4.1178
  230PVA     C538944   2.670   6.731   5.652 -0.1090  0.5062 -0.3498
  230PVA     H938945   2.705   6.827   5.693  1.0209 -1.3131  3.3620
  230PVA     O238946   2.570   6.687   5.742 -0.0362 -0.2599  0.2014
  230PVA    H1038947   2.507   6.754   5.774  1.2074 -0.2057  2.7684
  230PVA     C638948   2.589   6.751   5.510 -0.4418  0.1616 -1.1456
  230PVA    H1138949   2.615   6.666   5.446 -1.3880 -1.3293  0.3672
  230PVA    H1238950   2.651   6.831   5.467  0.0371 -0.0656 -0.8888
  230PVA     C738951   2.430   6.781   5.505  0.3172  1.0513 -0.1652
  230PVA    H1338952   2.386   6.826   5.595 -5.6153 -3.2761 -0.2793
  230PVA    H1438953   2.365   6.696   5.529 -0.6690  2.5701  3.1009
  230PVA     C838954   2.346   6.852   5.381 -0.6537 -0.2175  0.0390
  230PVA    H1538955   2.395   6.947   5.354 -0.0916  0.3477  2.8078
  230PVA     O338956   2.387   6.786   5.269 -0.0198 -1.2364  0.5540
  230PVA    H1638957   2.353   6.695   5.271 -4.0762  0.0537  0.2592
  230PVA     C938958   2.191   6.870   5.363 -0.4188 -0.7953 -0.9093
  230PVA    H1738959   2.122   6.830   5.439 -1.1782  1.3063 -0.4032
  230PVA    H1838960   2.169   6.809   5.275  1.5627  1.8310 -3.3840
  230PVA    C1038961   2.133   7.017   5.344  0.5576 -0.3016 -1.1424
  230PVA    H1938962   2.085   7.050   5.436  1.3088  2.2273 -1.5685
  230PVA    H2038963   2.211   7.095   5.350  0.1053  0.0213  2.2162
  230PVA    C1138964   2.017   7.047   5.232  0.2277 -0.8210 -0.3686
  230PVA    H2138965   2.058   7.033   5.131  2.9062  2.1364  0.1543
  230PVA     O438966   1.924   6.940   5.250  0.0361 -0.3297  0.9609
  230PVA    H2238967   1.964   6.883   5.182 -2.8366  0.5200 -1.7003
  230PVA    C1238968   1.933   7.190   5.238 -0.0395  0.8881  0.7500
  230PVA    H2338969   1.830   7.158   5.260  1.0131 -1.3759  2.9745
  230PVA    H2438970   1.952   7.260   5.320  1.0648  5.7230 -3.1706
  230PVA    C1338971   1.931   7.280   5.103  0.6462  0.4142 -0.7976
  230PVA    H2538972   1.917   7.206   5.023  3.8678 -0.1305 -0.9578
  230PVA    H2638973   2.035   7.313   5.097 -0.0269  3.2064  0.8843
  230PVA    C1438974   1.849   7.417   5.101  0.5118  0.5506 -1.3100
  230PVA    H2738975   1.906   7.465   5.182  1.4234 -6.1525  2.8739
  230PVA     O538976   1.717   7.377   5.162 -0.3976 -0.0122 -0.6169
  230PVA    H2838977   1.705   7.421   5.248  2.1324 -1.8931  0.8500
  230PVA    C1538978   1.819   7.518   4.972  0.1092  0.7531 -0.9188
  230PVA    H2938979   1.767   7.603   5.018 -1.5117 -0.3033 -0.7387
  230PVA    H3038980   1.741   7.478   4.906  1.7750  1.3495 -3.3558
  230PVA    C1638981   1.923   7.601   4.874 -0.8801 -0.2988 -0.1476
  230PVA    H3138982   1.910   0.020   4.907 -1.8799 -0.2421 -0.7003
  230PVA    H3238983   2.016   7.593   4.931 -2.2231  1.5805  2.4934
  230PVA    C1738984   1.914   7.601   4.705 -0.0612  0.9046 -1.0147
  230PVA    H3338985   1.899   7.496   4.678 -0.4775  0.5398  0.4946
  230PVA     O638986   1.786   7.654   4.682  0.7341 -1.0414 -1.0286
  230PVA    H3438987   1.799   0.032   4.609  0.4855  3.5552  2.3501
  230PVA    C1838988   2.025   7.665   4.625  0.0670  0.7450 -0.2350
  230PVA    H3538989   1.998   0.085   4.606 -4.0829  0.3635  2.4259
  230PVA    H3638990   2.107   7.677   4.697  2.3388 -2.6751 -2.0065
  230PVA    C1938991   2.068   7.578   4.495  0.3453  0.6231  0.5285
  230PVA    H3738992   1.990   7.619   4.430 -0.1129  1.6540  1.6649
  230PVA    H3838993   2.043   7.472   4.512 -4.7602  2.0020  4.3202
  230PVA    C2038994   2.214   7.582   4.419 -0.6788 -0.8788 -0.1282
  230PVA    H3938995   2.238   7.683   4.383  1.4537 -2.0480 -2.2759
  230PVA     O738996   2.315   7.580   4.520 -0.5852 -0.2632 -0.8948
  230PVA    H4038997   2.405   7.583   4.483  0.6401  1.8460  1.8687
  230PVA    C2138998   2.255   7.490   4.298 -1.5845 -0.5716  0.0085
  230PVA    H4138999   2.319   7.405   4.325  2.9778  1.8216 -2.1240
  230PVA    H4239000   2.159   7.457   4.255 -2.4956  0.5733  1.0836
  230PVA    C2239001   2.350   7.558   4.185 -0.0723  0.4364  0.3162
  230PVA    H4339002   2.297   7.644   4.142 -3.5607 -1.2827  0.8122
  230PVA    H4439003   2.437   7.602   4.234  0.6948  3.5496 -3.3320
  230PVA    C2339004   2.393   7.497   4.043 -1.3884 -0.0728  0.4652
  230PVA    H4539005   2.493   7.537   4.026 -2.1541  0.9116 -2.1955
  230PVA     O839006   2.428   7.365   4.075 -0.2152  0.0655 -0.2500
  230PVA    H4639007   2.476   7.323   4.002  1.6970  0.6031  0.6374
  230PVA    C2439008   2.329   7.504   3.895  0.7154  0.7987  0.2389
  230PVA    H4739009   2.323   7.399   3.865  0.9181  1.2979 -1.6713
  230PVA    H4839010   2.227   7.538   3.917 -0.7420 -1.5021 -2.3832
  230PVA    C2539011   2.401   7.581   3.776  0.2516 -0.6211  0.8557
  230PVA    H4939012   2.476   7.507   3.743  1.2233  0.9704 -0.6485
  230PVA    H5039013   2.464   7.647   3.838  1.1363 -0.5352 -0.1090
  230PVA    C2639014   2.344   7.620   3.629 -0.5879 -1.6929 -0.2800
  230PVA    H5139015   2.427   7.589   3.565 -0.0083  2.2037 -1.6549
  230PVA     O939016   2.235   7.540   3.595 -0.5088 -0.3936  0.3187
  230PVA    H5239017   2.212   7.510   3.684  0.7245 -0.9000  0.4870
  230PVA    C2739018   2.322   0.091   3.573 -0.2630  0.3636  0.7618
  230PVA    H5339019   2.268   0.150   3.648  2.7016  1.3151  2.3271
  230PVA    H5439020   2.265   0.074   3.481  3.0248  2.5650 -1.9215
  230PVA    C2839021   2.428   0.187   3.486 -1.0417 -0.2361  0.1113
  230PVA    H5539022   2.505   0.129   3.433 -0.8653  0.3455 -0.2839
  230PVA    H5639023   2.365   0.206   3.398 -0.3651 -1.2967 -0.6370
  230PVA    C2939024   2.504   0.317   3.540 -0.1282  0.0418 -0.8101
  230PVA    H5739025   2.559   0.284   3.629  3.5136  3.3835 -1.5661
  230PVA    O1039026   2.413   0.411   3.586 -0.8597 -0.8390 -0.3422
  230PVA    H5839027   2.465   0.477   3.636  2.1220  0.8520 -5.0119
  230PVA    C3039028   2.627   0.364   3.456  0.2375  0.0629 -0.3601
  230PVA    H5939029   2.679   0.273   3.422  0.0940 -0.0035 -0.4027
  230PVA    H6039030   2.558   0.403   3.381 -0.6137 -0.6278  0.0451
  230PVA    C3139031   2.723   0.486   3.513  0.9870  0.6327  0.8303
  230PVA    H6139032   2.759   0.443   3.607 -3.2260 -1.5833  1.7112
  230PVA    H6239033   2.660   0.571   3.543 -3.0094 -1.0578 -1.9068
  230PVA    C3239034   2.833   0.554   3.431 -0.0382 -0.3236  1.0905
  230PVA    H6339035   2.889   0.474   3.382  1.6562  2.0870 -1.2150
  230PVA    O1139036   2.770   0.638   3.335 -1.0316  0.3508 -0.3194
  230PVA    H6439037   2.693   0.591   3.299 -0.2383 -0.7931 -0.5765
  230PVA    C3339038   2.965   0.635   3.477  0.2924  0.7693 -0.1635
  230PVA    H6539039   2.948   0.727   3.533  1.5882 -0.8121  3.1079
  230PVA    H6639040   3.032   0.590   3.551 -4.1419  1.2710  4.7571
  230PVA    C3439041   3.063   0.674   3.370 -0.7419  0.2174 -1.2835
  230PVA    H6739042   3.036   0.634   3.271  1.7953 -1.3794 -1.4277
  230PVA    H6839043   3.029   0.778   3.364 -2.9129  0.0368  3.6376
  230PVA    C3539044   3.219   0.671   3.387  0.1359  1.0704 -0.1589
  230PVA    H6939045   3.246   0.622   3.481  2.1471  1.2409 -0.5911
  230PVA    O1239046   3.264   0.783   3.416  0.1707 -0.2233 -0.6108
  230PVA    H7039047   3.221   0.842   3.351 -0.4477  1.6913  1.4067
  230PVA    C3639048   3.322   0.618   3.274 -0.2301 -0.1422  0.1489
  230PVA    H7139049   3.339   0.512   3.296 -2.8719 -1.9077 -4.7936
  230PVA    H7239050   3.268   0.609   3.179  2.3159  1.8778 -1.6243
  230PVA    C3739051   3.462   0.690   3.261 -0.4277 -0.0103 -0.3998
  230PVA    H7339052   3.505   0.724   3.355 -3.0860  0.8095  0.6235
  230PVA    H7439053   3.433   0.781   3.208 -2.6351 -1.0725 -1.1469
  230PVA    C3839054   3.580   0.627   3.176 -0.4249 -0.3188 -0.6151
  230PVA    H7539055   3.533   0.570   3.095  0.4039 -1.9850  0.0385
  230PVA    O1339056   3.638   0.541   3.280  0.6049 -0.9077 -0.6399
  230PVA    H7639057   3.585   0.569   3.357 -1.0093 -0.7593 -1.7490
  230PVA    C3939058   3.695   0.717   3.106 -1.1568  0.6636  0.4801
  230PVA    H7739059   3.755   0.772   3.179  3.9191 -1.1081 -1.9107
  230PVA    H7839060   3.643   0.798   3.054 -3.7008 -0.9404  0.3571
  230PVA    C4039061   3.789   0.637   3.008  1.3077 -0.1951  0.2374
  230PVA    H7939062   3.871   0.605   3.073  3.7792  3.0955 -0.9534
  230PVA    H8039063   3.740   0.546   2.972 -1.4004  0.4288  2.0417
  230PVA    C4139064   3.861   0.686   2.883 -0.3981  0.4945 -0.5093
  230PVA    H8139065   3.778   0.677   2.812  0.3978 -2.0547 -1.2181
  230PVA    O1439066   3.907   0.821   2.905  0.2808 -0.2211 -0.3660
  230PVA    H8239067   3.907   0.822   3.002 -2.5132 -2.3103 -0.2312
  230PVA    C4239068   3.973   0.604   2.817  0.8280  1.4330  0.2381
  230PVA    H8339069   3.934   0.508   2.781 -0.2692  2.1890 -0.6312
  230PVA    H8439070   4.048   0.581   2.895  1.8023 -2.8014 -1.6783
  230PVA    C4339071   4.043   0.662   2.680 -0.3312  0.1484  0.2235
  230PVA    H8539072   4.102   0.746   2.719 -2.7513  1.1462  1.9326
  230PVA    H8639073   3.968   0.715   2.619  2.7175  1.8169 -2.4157
  230PVA    C4439074   4.115   0.554   2.583 -1.2674 -0.2133  0.5607
  230PVA    H8739075   4.024   0.501   2.553 -0.0576 -3.4002  2.0138
  230PVA    O1539076   4.179   0.457   2.666 -1.0323 -0.9983  0.3405
  230PVA    H8839077   4.139   0.369   2.654  0.0365 -1.4384 -0.1421
  230PVA    C4539078   4.193   0.595   2.451  1.0307  1.3852 -0.3057
  230PVA    H8939079   4.240   0.692   2.478  2.9104 -0.1827  2.7122
  230PVA    H9039080   4.119   0.627   2.378  1.3521  0.1747 -1.1819
  230PVA    C4639081   4.290   0.496   2.388 -0.1258  0.1008 -0.1867
  230PVA    H9139082   4.377   0.527   2.447 -0.8306  0.9617  0.4158
  230PVA    H9239083   4.259   0.403   2.436  1.0884 -0.7950 -1.0809
  230PVA    C4739084   4.328   0.490   2.233  0.6513 -0.0883  0.3823
  230PVA    H9339085   4.253   0.553   2.182  0.2219 -1.3572 -0.6058
  230PVA    O1639086   4.451   0.542   2.209  0.2399  0.0095 -0.2871
  230PVA    H9439087   4.429   0.635   2.189 -1.6077 -0.4315 -0.4157
  230PVA    C4839088   4.321   0.351   2.158  0.3213  0.6255  0.2309
  230PVA    H9539089   4.351   0.285   2.241  3.2628  0.4070 -0.8890
  230PVA    H9639090   4.220   0.307   2.156  0.6151 -0.6614  4.0231
  230PVA    C4939091   4.417   0.325   2.029 -0.8821  0.1142 -0.5459
  230PVA    H9739092   4.496   0.401   2.034  0.3492 -0.9355 -2.7547
  230PVA    H9839093   4.363   0.358   1.939  2.5287  3.5208 -1.6253
  230PVA    C5039094   4.473   0.184   1.993  0.5131 -0.9458 -0.2870
  230PVA    H9939095   4.555   0.151   2.059 -1.0696  0.9619  2.9005
  230PVA    O1739096   4.377   0.086   2.024  0.6292  0.5661  0.6106
  230PVA   H10039097   4.418   0.009   2.067 -1.2333  0.0460  1.5802
  230PVA    C5139098   4.506   0.168   1.832  0.5972 -0.8806  0.5906
  230PVA   H10139099   4.569   0.248   1.792 -1.1367 -0.8797 -2.3984
  230PVA   H10239100   4.415   0.183   1.773  1.7785  0.9588 -0.8454
  231PVA     C139101   3.254   6.124   6.180 -0.0544 -0.0674 -0.7131
  231PVA     H139102   3.349   6.069   6.173  0.0866  0.3608 -3.2341
  231PVA     H239103   3.211   6.095   6.083  3.0741 -4.1558 -1.1620
  231PVA     C239104   3.175   6.062   6.299 -0.3842 -0.1301  0.6072
  231PVA     H339105   3.219   6.066   6.399 -0.8174 -0.7989  0.8271
  231PVA     O139106   3.064   6.142   6.315  0.0767  0.0568  0.2182
  231PVA     H439107   3.080   6.221   6.260 -1.1176  0.3675  0.2854
  231PVA     C339108   3.136   5.912   6.300 -0.6063 -0.0509  0.1689
  231PVA     H539109   3.229   5.855   6.302  0.2019  1.0602 -2.1439
  231PVA     H639110   3.088   5.880   6.207 -0.1580  2.3276 -0.9597
  231PVA     C439111   3.061   5.864   6.431 -0.4131 -0.4897 -0.0497
  231PVA     H739112   3.016   5.959   6.463  4.6286  1.9967  0.6885
  231PVA     H839113   3.141   5.848   6.505 -0.9550  1.4721  1.0162
  231PVA     C539114   2.966   5.738   6.400 -0.6537 -0.6547  0.2321
  231PVA     H939115   2.921   5.758   6.302  1.3471  1.1642 -0.3889
  231PVA     O239116   3.048   5.629   6.390  0.2943 -0.2555 -0.4716
  231PVA    H1039117   2.992   5.551   6.405  0.0162 -0.5238 -2.5126
  231PVA     C639118   2.865   5.727   6.520  0.6204  0.6150  0.3868
  231PVA    H1139119   2.926   5.690   6.603 -0.2956 -4.0491 -0.6742
  231PVA    H1239120   2.827   5.827   6.542 -1.3627  0.4704 -1.9632
  231PVA     C739121   2.755   5.617   6.514  0.0758  0.2525  0.5395
  231PVA    H1339122   2.793   5.537   6.580 -1.4048  0.3091  1.5028
  231PVA    H1439123   2.722   5.569   6.421 -2.5743 -3.2293  3.0059
  231PVA     C839124   2.615   5.671   6.580 -1.0490  0.0761  0.5438
  231PVA    H1539125   2.625   5.778   6.606 -0.1081  1.0137 -3.1474
  231PVA     O339126   2.573   5.612   6.700 -0.5995  0.0005  0.1159
  231PVA    H1639127   2.631   5.651   6.768 -1.9712  4.9608 -1.1743
  231PVA     C939128   2.489   5.647   6.483  1.5016 -1.4250 -0.7311
  231PVA    H1739129   2.500   5.667   6.376  0.5956  0.7565 -0.4655
  231PVA    H1839130   2.463   5.541   6.495 -0.5505 -1.1750 -2.3822
  231PVA    C1039131   2.355   5.725   6.516 -0.8088  0.5693 -0.1887
  231PVA    H1939132   2.374   5.829   6.487 -1.9241  2.2047  4.2132
  231PVA    H2039133   2.325   5.704   6.619  0.9218  2.2343  0.7024
  231PVA    C1139134   2.240   5.677   6.408  0.2002  0.5273  0.0362
  231PVA    H2139135   2.280   5.693   6.306 -0.1334  1.2663  0.0159
  231PVA     O439136   2.239   5.536   6.411 -0.0298  0.2303  0.1031
  231PVA    H2239137   2.198   5.509   6.328 -1.7814 -2.5740  1.7154
  231PVA    C1239138   2.088   5.724   6.413 -1.1741 -0.5544 -0.1438
  231PVA    H2339139   2.078   5.676   6.511 -2.2612 -2.1006 -0.9741
  231PVA    H2439140   2.077   5.833   6.425 -2.1942 -0.8930  2.7094
  231PVA    C1339141   1.989   5.666   6.309  0.3938  0.9642 -0.0817
  231PVA    H2539142   1.979   5.561   6.341  0.7366  0.2767 -2.1055
  231PVA    H2639143   2.041   5.647   6.215  0.9276 -0.2837  0.4415
  231PVA    C1439144   1.853   5.733   6.276 -1.4578  0.4023 -0.2060
  231PVA    H2739145   1.797   5.728   6.370 -0.0359 -0.5388  0.6322
  231PVA     O539146   1.885   5.861   6.234  0.3063  0.1097 -0.6402
  231PVA    H2839147   1.808   5.920   6.235 -0.9980 -1.5100 -1.1917
  231PVA    C1539148   1.788   5.646   6.165 -0.0990 -0.0014 -0.8461
  231PVA    H2939149   1.852   5.623   6.079  0.4214 -0.0218 -0.4550
  231PVA    H3039150   1.786   5.549   6.217  1.9975  1.2222  1.7389
  231PVA    C1639151   1.645   5.705   6.114 -0.5231  0.5004  0.2602
  231PVA    H3139152   1.588   5.686   6.206 -2.0617 -2.9331 -1.1864
  231PVA    H3239153   1.660   5.809   6.084 -0.2228  0.1896 -0.7325
  231PVA    C1739154   1.568   5.629   5.993 -0.4281  0.6128 -1.0093
  231PVA    H3339155   1.595   5.523   6.001 -1.4656  0.1314 -3.1484
  231PVA     O639156   1.630   5.679   5.879 -0.0592 -0.5404 -0.5677
  231PVA    H3439157   1.613   5.774   5.893 -0.9204 -0.2676 -2.9609
  231PVA    C1839158   1.413   5.658   5.975  0.8132  0.9206 -0.7135
  231PVA    H3539159   1.357   5.677   6.068  0.5308  0.7479 -0.8465
  231PVA    H3639160   1.419   5.764   5.947  0.0225  1.1128 -0.2095
  231PVA    C1939161   1.336   5.576   5.872 -0.6463  0.3938 -1.6814
  231PVA    H3739162   1.332   5.481   5.927 -1.4925  0.3156 -1.8544
  231PVA    H3839163   1.388   5.578   5.776 -2.6025  1.1052 -2.7986
  231PVA    C2039164   1.183   5.604   5.845  0.1090 -0.4969  0.7660
  231PVA    H3939165   1.147   5.589   5.948 -0.2756  0.6580  0.8095
  231PVA     O739166   1.159   5.744   5.804  0.5142 -0.2401 -0.1369
  231PVA    H4039167   1.211   5.743   5.722  4.2773  4.7114  1.6362
  231PVA    C2139168   1.117   5.512   5.740  0.8132  0.1256 -0.2498
  231PVA    H4139169   1.172   5.498   5.646 -1.9469  0.5195 -2.0483
  231PVA    H4239170   1.122   5.424   5.805 -1.8552  2.2172  3.1191
  231PVA    C2239171   0.955   5.519   5.707  0.5635 -0.1820 -0.2299
  231PVA    H4339172   0.894   5.516   5.798  0.9276  3.7357  0.3091
  231PVA    H4439173   0.927   5.611   5.654 -4.6568 -1.4294 -0.2087
  231PVA    C2339174   0.910   5.407   5.594  1.6979 -0.4686  0.6667
  231PVA    H4539175   0.926   5.311   5.645  0.5614 -0.4708  1.0445
  231PVA     O839176   0.992   5.418   5.486 -0.0458  0.3691 -0.8249
  231PVA    H4639177   0.975   5.507   5.450 -0.3749 -0.8573 -4.0463
  231PVA    C2439178   0.756   5.400   5.555 -0.2394 -0.2725 -0.4503
  231PVA    H4739179   0.696   5.358   5.637  1.2260  0.2364  0.9564
  231PVA    H4839180   0.736   5.507   5.547 -2.0723 -0.6465 -1.3725
  231PVA    C2539181   0.701   5.349   5.424 -0.2430 -0.0143 -0.3891
  231PVA    H4939182   0.735   5.245   5.416  5.5946  1.5948 -0.4582
  231PVA    H5039183   0.771   5.398   5.356  0.6462 -2.2918 -1.1936
  231PVA    C2639184   0.550   5.363   5.388  0.2835  0.2179  0.1762
  231PVA    H5139185   0.519   5.465   5.361  0.0176  0.0663 -0.0922
  231PVA     O939186   0.454   5.302   5.479  1.2319 -0.3854 -0.2585
  231PVA    H5239187   0.439   5.211   5.449  1.0430  0.0721 -1.6483
  231PVA    C2739188   0.525   5.295   5.248 -0.5284  0.1441  0.3762
  231PVA    H5339189   0.571   5.196   5.258 -1.5367 -0.3304  0.4709
  231PVA    H5439190   0.576   5.343   5.164 -0.6067  0.4704  0.5158
  231PVA    C2839191   0.385   5.239   5.205  0.0214  0.3803 -0.6101
  231PVA    H5539192   0.345   5.185   5.291 -1.9241  1.5401 -0.7240
  231PVA    H5639193   0.296   5.301   5.189 -0.4325  0.3994  1.6535
  231PVA    C2939194   0.378   5.161   5.073  0.0167  1.0757  0.1792
  231PVA    H5739195   0.439   5.071   5.088 -3.1002 -1.4305 -1.0223
  231PVA    O1039196   0.438   5.243   4.970  1.1542 -0.0807 -0.3994
  231PVA    H5839197   0.508   5.193   4.923  2.3357  5.1170 -5.1363
  231PVA    C3039198   0.250   5.086   5.020  0.8675  0.6572 -0.7690
  231PVA    H5939199   0.214   5.018   5.099 -0.2723  2.0728 -0.0061
  231PVA    H6039200   0.176   5.165   5.002  0.7498 -0.0359 -3.7792
  231PVA    C3139201   0.275   4.988   4.891 -0.0714 -0.0542  0.3306
  231PVA    H6139202   0.366   4.929   4.911 -1.5681 -3.0669 -1.1223
  231PVA    H6239203   0.299   5.071   4.824 -0.8674  1.4884  1.8789
  231PVA    C3239204   0.161   4.889   4.835 -0.5451  0.6459 -1.1573
  231PVA    H6339205   0.104   4.849   4.919  3.6268 -0.7288  1.2985
  231PVA    O1139206   0.078   4.975   4.754  0.2574 -0.0220  0.4185
  231PVA    H6439207   7.760   4.925   4.745 -1.0135  2.1406 -0.9727
  231PVA    C3339208   0.212   4.762   4.744 -0.4293 -0.8043 -0.7044
  231PVA    H6539209   0.292   4.723   4.808 -1.0393 -1.1382 -0.1335
  231PVA    H6639210   0.261   4.812   4.660  3.6674  2.6142  3.1402
  231PVA    C3439211   0.108   4.657   4.688 -0.1800  0.6345  0.9014
  231PVA    H6739212   0.037   4.631   4.768 -0.4117 -0.0545  0.4758
  231PVA    H6839213   0.051   4.708   4.610  0.2175  2.3575  1.6839
  231PVA    C3539214   0.189   4.530   4.635 -0.4333 -0.2350 -1.2215
  231PVA    H6939215   0.256   4.497   4.715 -1.6874 -1.8078 -0.7760
  231PVA    O1239216   0.275   4.548   4.516 -0.2107 -0.1676  0.3177
  231PVA    H7039217   0.311   4.458   4.514 -0.9476 -0.5403  2.1353
  231PVA    C3639218   0.092   4.408   4.612 -0.5713 -1.0232 -0.7415
  231PVA    H7139219   0.051   4.433   4.513 -1.7689 -0.5519 -0.1351
  231PVA    H7239220   0.019   4.398   4.693 -3.7767 -0.5545 -3.3849
  231PVA    C3739221   0.167   4.276   4.602  0.5343 -0.4569  0.1651
  231PVA    H7339222   0.190   4.259   4.707 -3.9252 -3.6357  0.9230
  231PVA    H7439223   0.256   4.283   4.538  0.0924  1.8347 -0.2683
  231PVA    C3839224   0.068   4.149   4.582 -0.1429  0.6001  0.0863
  231PVA    H7539225   7.731   4.172   4.615  0.0736 -0.4985  1.6164
  231PVA    O1339226   0.067   4.112   4.448  0.2012 -0.3323 -0.8361
  231PVA    H7639227   0.157   4.133   4.416 -0.4693  4.0747 -0.4542
  231PVA    C3939228   0.090   4.021   4.673  0.6468 -0.5366 -0.9403
  231PVA    H7739229   0.033   4.035   4.766 -4.9840 -3.3435 -3.5064
  231PVA    H7839230   0.192   4.025   4.713  0.4098  5.3382 -0.0549
  231PVA    C4039231   0.035   3.882   4.627 -0.6237 -0.7472 -0.1635
  231PVA    H7939232   7.695   3.911   4.633 -0.1391  1.5612 -1.4277
  231PVA    H8039233   0.065   3.866   4.522 -1.1218  1.5153 -0.7211
  231PVA    C4139234   0.089   3.747   4.695 -0.2742 -0.2425  0.5082
  231PVA    H8139235   0.069   3.765   4.801 -1.1190 -3.0538  0.8971
  231PVA    O1439236   0.236   3.755   4.683  0.9331 -0.6239 -0.1538
  231PVA    H8239237   0.237   3.833   4.740 -2.2842 -0.8774  0.4727
  231PVA    C4239238   0.028   3.612   4.640 -0.1431  0.1027  0.1711
  231PVA    H8339239   7.685   3.627   4.646 -0.7258 -2.6503 -1.3630
  231PVA    H8439240   0.064   3.595   4.537  1.6768  3.5345  0.1080
  231PVA    C4339241   0.063   3.485   4.722  0.9274 -1.0826  0.0856
  231PVA    H8539242   0.007   3.487   4.816  2.0557 -1.0941  0.7778
  231PVA    H8639243   0.168   3.502   4.750  0.7887  1.2694 -0.5806
  231PVA    C4439244   0.042   3.338   4.657  0.2021  0.7420 -0.5063
  231PVA    H8739245   7.700   3.319   4.640  0.0273 -0.3833  1.4782
  231PVA    O1539246   0.121   3.308   4.546  0.6544 -0.3329  1.4282
  231PVA    H8839247   0.213   3.295   4.576  1.9795  1.1712 -1.5774
  231PVA    C4539248   0.095   3.223   4.757  0.8570  1.2367  0.2310
  231PVA    H8939249   0.019   3.177   4.822 -1.1408  2.5566 -1.0768
  231PVA    H9039250   0.155   3.262   4.840  0.3922 -1.8353  2.1843
  231PVA    C4639251   0.176   3.099   4.691 -0.0261 -0.4158  0.3415
  231PVA    H9139252   0.127   3.048   4.607  2.1972 -1.0706 -0.6097
  231PVA    H9239253   0.276   3.133   4.661  0.4385 -0.8079  1.3865
  231PVA    C4739254   0.198   2.981   4.793  0.6665  0.4378  0.1745
  231PVA    H9339255   0.246   3.037   4.874  0.1950 -0.0438  0.8022
  231PVA    O1639256   0.073   2.913   4.832 -0.0658  0.6062 -0.1324
  231PVA    H9439257   0.116   2.848   4.890 -0.7349 -0.6536 -0.9952
  231PVA    C4839258   0.297   2.871   4.740  0.3003  0.0510  0.1420
  231PVA    H9539259   0.242   2.796   4.681 -0.8321  0.4847  0.6208
  231PVA    H9639260   0.363   2.917   4.665  0.0271  0.6717  0.2762
  231PVA    C4939261   0.395   2.806   4.855 -0.7283 -0.5067  0.9867
  231PVA    H9739262   0.437   2.890   4.911  2.2217  0.2382 -2.0245
  231PVA    H9839263   0.325   2.744   4.912 -1.7988 -0.3676 -0.1570
  231PVA    C5039264   0.516   2.712   4.808  0.3599 -0.4566 -0.7886
  231PVA    H9939265   0.565   2.776   4.734  0.9777 -0.2281 -0.1867
  231PVA    O1739266   0.468   2.601   4.748  0.3921 -1.0995 -0.7607
  231PVA   H10039267   0.543   2.538   4.746 -0.6090 -2.3717 -0.0123
  231PVA    C5139268   0.619   2.665   4.921 -1.2287 -0.0292  0.0623
  231PVA   H10139269   0.695   2.744   4.925  0.5308 -1.6301 -0.4368
  231PVA   H10239270   0.561   2.687   5.012 -0.5771  0.9503  0.2600
  232PVA     C139271   4.497   6.923   0.982 -0.4182  0.0470  0.0873
  232PVA     H139272   4.586   6.866   0.953 -1.7371 -0.7384 -2.8274
  232PVA     H239273   4.522   7.010   0.920  1.5113 -0.7507 -0.3342
  232PVA     C239274   4.366   6.838   0.933  0.3466 -0.4347  0.0782
  232PVA     H339275   4.277   6.890   0.971  0.1866 -1.1542  0.7289
  232PVA     O139276   4.363   6.705   0.986 -0.6375 -0.0591 -0.6074
  232PVA     H439277   4.455   6.674   0.981 -0.7130 -0.5773  0.8785
  232PVA     C339278   4.369   6.813   0.778 -0.0089 -0.3076 -0.5994
  232PVA     H539279   4.380   6.909   0.725  0.7894  0.5741  1.0812
  232PVA     H639280   4.461   6.755   0.761  0.7719  0.8910 -0.6319
  232PVA     C439281   4.236   6.744   0.719 -0.3635 -1.0975 -0.5369
  232PVA     H739282   4.141   6.781   0.760 -1.1445 -1.2752 -2.1270
  232PVA     H839283   4.243   6.636   0.736 -1.6131 -0.8712  1.8022
  232PVA     C539284   4.213   6.773   0.569 -0.0450 -0.7671 -0.4035
  232PVA     H939285   4.158   6.868   0.566 -0.0714 -0.7877 -0.5830
  232PVA     O239286   4.334   6.787   0.493 -0.2716 -0.4200 -0.4312
  232PVA    H1039287   4.372   6.700   0.473 -3.8742 -2.1714 -0.2583
  232PVA     C639288   4.123   6.673   0.491  0.7330  0.5340 -1.2941
  232PVA    H1139289   4.160   6.570   0.498  0.5093  0.5648  1.6438
  232PVA    H1239290   4.022   6.653   0.529  0.2125 -0.3196 -3.0277
  232PVA     C739291   4.089   6.714   0.344 -0.1663  1.1560 -0.2556
  232PVA    H1339292   4.173   6.694   0.277  3.6361 -1.9750  4.6934
  232PVA    H1439293   4.067   6.821   0.347 -3.0143  0.7557 -2.3891
  232PVA     C839294   3.959   6.657   0.280  0.7883  0.6847 -0.7661
  232PVA    H1539295   3.884   6.703   0.344  0.4744 -2.2068  1.1688
  232PVA     O339296   3.958   6.516   0.275  0.2886 -1.1101 -0.0098
  232PVA    H1639297   3.977   6.501   0.369  2.6540  1.3418  0.0437
  232PVA     C939298   3.944   6.683   0.118  0.6037  0.5858 -0.2631
  232PVA    H1739299   4.019   6.613   0.079 -1.1347 -3.8543  3.3123
  232PVA    H1839300   3.980   6.785   0.102  0.0588  0.8773  0.3205
  232PVA    C1039301   3.800   6.649   0.041 -0.4430  0.7113 -0.1637
  232PVA    H1939302   3.790   6.540   0.037  0.5289  0.5662  0.7816
  232PVA    H2039303   3.707   6.685   0.087  0.4316  4.0169 -0.6838
  232PVA    C1139304   3.791   6.714   7.987  0.2801 -1.1993 -0.0150
  232PVA    H2139305   3.825   6.817   8.000  2.0719 -1.8352  0.7271
  232PVA     O439306   3.877   6.638   7.893  0.2399 -0.6924  0.1137
  232PVA    H2239307   3.863   6.696   7.816 -1.9014  2.7413  2.7359
  232PVA    C1239308   3.647   6.727   7.932 -0.1280  0.1164 -0.1163
  232PVA    H2339309   3.612   6.627   7.904 -0.2769  0.2830 -0.5232
  232PVA    H2439310   3.575   6.745   8.013 -0.6974 -0.7212 -0.4220
  232PVA    C1339311   3.613   6.809   7.804 -0.9963  0.0483  0.7411
  232PVA    H2539312   3.624   6.736   7.723 -4.5347  0.9972 -0.7821
  232PVA    H2639313   3.682   6.893   7.792  2.1735 -1.5954  4.9292
  232PVA    C1439314   3.468   6.877   7.788 -0.3802  0.9500 -0.2669
  232PVA    H2739315   3.401   6.795   7.817 -3.2104  3.5972  1.2125
  232PVA     O539316   3.441   6.983   7.875  0.5240  0.7315  0.6075
  232PVA    H2839317   3.524   7.018   7.913 -0.3098  5.0638 -0.9876
  232PVA    C1539318   3.412   6.910   7.643 -0.0715 -0.0435 -0.6610
  232PVA    H2939319   3.337   6.836   7.615 -1.3986  2.0141 -2.9029
  232PVA    H3039320   3.493   6.895   7.571 -0.2523 -1.4726 -0.6013
  232PVA    C1639321   3.339   7.053   7.631  0.2132 -0.9734 -0.2765
  232PVA    H3139322   3.291   7.054   7.729 -3.1634 -2.6800 -1.7596
  232PVA    H3239323   3.404   7.137   7.604  1.5446 -1.7138  0.5275
  232PVA    C1739324   3.211   7.061   7.533  0.3711 -0.7553 -0.4604
  232PVA    H3339325   3.131   7.014   7.592  1.4675  1.0017  2.6823
  232PVA     O639326   3.230   7.001   7.415 -0.3973  1.0679 -0.3448
  232PVA    H3439327   3.158   6.937   7.410  1.0751 -0.8338  1.1894
  232PVA    C1839328   3.132   7.204   7.516 -0.8331 -0.1845 -1.2396
  232PVA    H3539329   3.090   7.224   7.616 -4.7897  3.5515 -3.3181
  232PVA    H3639330   3.196   7.288   7.485  0.9110 -2.3655 -3.9562
  232PVA    C1939331   3.012   7.207   7.409  0.1483  0.4927 -1.0290
  232PVA    H3739332   3.058   7.207   7.310  1.9724  6.0117 -0.5616
  232PVA    H3839333   2.973   7.106   7.425  4.3719 -1.0306  1.3677
  232PVA    C2039334   2.898   7.320   7.392 -0.3535  0.5831  0.3635
  232PVA    H3939335   2.848   7.328   7.490  0.8179 -0.7190  1.0970
  232PVA     O739336   2.970   7.437   7.370  0.0632  0.0195  0.5491
  232PVA    H4039337   2.914   7.516   7.377  0.9410  0.7228 -0.1375
  232PVA    C2139338   2.812   7.311   7.258  0.3079  0.5359 -0.6066
  232PVA    H4139339   2.796   7.207   7.228  4.1717 -0.2261 -0.4631
  232PVA    H4239340   2.852   7.365   7.171  0.1184 -0.3355 -1.2542
  232PVA    C2239341   2.662   7.371   7.245  0.5728 -0.5512  0.4971
  232PVA    H4339342   2.658   7.473   7.284  2.1613  0.4067 -1.5984
  232PVA    H4439343   2.608   7.321   7.325  1.4788 -1.1499  0.7484
  232PVA    C2339344   2.572   7.349   7.102 -0.3842  0.5371 -1.1500
  232PVA    H4539345   2.556   7.242   7.080  0.8108 -0.7811  3.3179
  232PVA     O839346   2.644   7.404   7.007  0.0306 -0.7486  0.2003
  232PVA    H4639347   2.737   7.378   6.995  0.5298  1.7750 -2.8054
  232PVA    C2439348   2.430   7.418   7.104  0.3455  0.4410  0.4765
  232PVA    H4739349   2.442   7.525   7.128  0.5718  0.5914 -0.2897
  232PVA    H4839350   2.382   7.365   7.187 -0.7417  1.1379  0.3222
  232PVA    C2539351   2.338   7.418   6.980 -0.5057 -0.8226  1.3866
  232PVA    H4939352   2.420   7.456   6.917 -2.9264 -0.4113 -1.7879
  232PVA    H5039353   2.295   7.324   6.943 -3.9722  1.1668 -0.1507
  232PVA    C2639354   2.215   7.519   6.980 -0.5324 -0.2310  0.1061
  232PVA    H5139355   2.252   7.596   7.050 -0.9751 -2.3358  2.8592
  232PVA     O939356   2.113   7.464   7.052  0.2388 -0.2514 -1.7739
  232PVA    H5239357   2.049   7.529   7.084 -1.3869 -2.7946  0.6831
  232PVA    C2739358   2.165   7.580   6.851 -0.7559  0.8212  0.6228
  232PVA    H5339359   2.111   7.507   6.789 -1.4656  1.7628  0.1184
  232PVA    H5439360   2.247   7.611   6.785 -4.0374  4.1076 -2.3198
  232PVA    C2839361   2.066   0.025   6.877  0.0650  0.4168 -0.2577
  232PVA    H5539362   1.973   7.652   6.883  0.9848 -1.5179 -2.9983
  232PVA    H5639363   2.081   0.064   6.979 -2.4391  1.1842 -0.1131
  232PVA    C2939364   2.057   0.114   6.755  0.4618  0.9081  1.6338
  232PVA    H5739365   2.034   0.045   6.674 -1.6592  0.4025  2.5982
  232PVA    O1039366   2.184   0.169   6.742  0.0300 -0.0476 -0.2442
  232PVA    H5839367   2.180   0.261   6.774  3.5086  0.8323 -1.8858
  232PVA    C3039368   1.956   0.224   6.746  0.2861  1.3776  0.2060
  232PVA    H5939369   1.985   0.294   6.825 -0.2778 -0.2209  1.9200
  232PVA    H6039370   1.856   0.200   6.785 -0.5624 -0.5272 -2.7467
  232PVA    C3139371   1.947   0.293   6.604 -1.2061  1.6103 -0.6186
  232PVA    H6139372   1.918   0.224   6.524  0.7659  1.6056 -1.3629
  232PVA    H6239373   2.047   0.327   6.577 -1.6033  0.4479 -3.9674
  232PVA    C3239374   1.862   0.419   6.598  0.4434 -0.5641 -0.1361
  232PVA    H6339375   1.881   0.483   6.686 -0.6878 -0.3838 -0.0062
  232PVA    O1139376   1.727   0.355   6.599 -0.0774  0.4530 -0.1929
  232PVA    H6439377   1.759   0.263   6.604  1.7417  1.0692  0.3888
  232PVA    C3339378   1.876   0.522   6.476  0.0046 -0.0677 -0.2250
  232PVA    H6539379   1.964   0.583   6.501  0.7784 -0.7113 -1.2711
  232PVA    H6639380   1.909   0.472   6.385 -1.4310  1.1161 -1.4485
  232PVA    C3439381   1.764   0.614   6.434  0.9762 -0.1761  0.1329
  232PVA    H6739382   1.682   0.541   6.439  0.6908  0.2202  4.5398
  232PVA    H6839383   1.748   0.684   6.517 -0.0947  1.6008 -1.4922
  232PVA    C3539384   1.778   0.711   6.305  0.0613  0.8164 -1.2357
  232PVA    H6939385   1.756   0.650   6.216 -1.9649 -2.6497  1.4055
  232PVA    O1239386   1.903   0.771   6.314 -0.0417  0.0605 -0.3596
  232PVA    H7039387   1.915   0.793   6.220 -1.5102  1.6552 -0.2273
  232PVA    C3639388   1.675   0.843   6.295  0.3781  0.1913  0.5012
  232PVA    H7139389   1.590   0.821   6.362  2.4500  1.3659  3.7889
  232PVA    H7239390   1.722   0.932   6.338 -0.1115  0.6785  0.0462
  232PVA    C3739391   1.627   0.894   6.148 -1.6397  0.3697 -0.3768
  232PVA    H7339392   1.571   0.829   6.079  0.0077  2.0669 -3.4969
  232PVA    H7439393   1.714   0.894   6.081 -3.4145  3.4658 -2.9186
  232PVA    C3839394   1.542   1.029   6.146 -0.0711 -0.2737  0.1919
  232PVA    H7539395   1.599   1.100   6.207  0.3295  0.7028 -1.2688
  232PVA    O1339396   1.417   1.008   6.216 -0.2603 -0.0096 -1.1226
  232PVA    H7639397   1.350   1.078   6.215 -1.5792 -0.7822  3.8614
  232PVA    C3939398   1.514   1.105   6.012 -0.5087  0.5491 -0.7927
  232PVA    H7739399   1.420   1.061   5.975 -0.8324  3.8294 -4.4647
  232PVA    H7839400   1.583   1.068   5.936 -1.0926  1.5728 -1.8447
  232PVA    C4039401   1.495   1.261   6.008  0.6527  0.7269  0.0419
  232PVA    H7939402   1.420   1.285   6.084  0.4116 -4.9157  2.0681
  232PVA    H8039403   1.577   1.300   6.070 -2.0465 -0.4432  4.8941
  232PVA    C4139404   1.480   1.340   5.871  0.3431  1.8088 -1.1308
  232PVA    H8139405   1.584   1.360   5.843  2.2368 -2.0225  2.0417
  232PVA    O1439406   1.432   1.259   5.766 -0.6020  0.7248 -0.1688
  232PVA    H8239407   1.395   1.334   5.717 -0.6846  1.1099  0.4684
  232PVA    C4239408   1.397   1.467   5.866  0.2445  0.6623  0.1569
  232PVA    H8339409   1.294   1.449   5.900  1.3362  1.5307  4.6078
  232PVA    H8439410   1.421   1.538   5.947 -3.7468  0.3488  1.8536
  232PVA    C4339411   1.404   1.574   5.747 -0.3872  0.5703 -0.4649
  232PVA    H8539412   1.378   1.512   5.660  0.3348 -2.2209  1.1670
  232PVA    H8639413   1.505   1.613   5.732 -0.2813  0.7816  0.6695
  232PVA    C4439414   1.315   1.702   5.745  0.0273  1.0037  0.5451
  232PVA    H8739415   1.209   1.674   5.740  0.1543  0.5620  0.1669
  232PVA    O1539416   1.340   1.769   5.867 -0.2348 -0.0712 -0.1266
  232PVA    H8839417   1.251   1.809   5.869 -0.5085 -0.4713 -2.0756
  232PVA    C4539418   1.346   1.820   5.639  0.0904 -0.1345  0.1124
  232PVA    H8939419   1.363   1.780   5.538  1.1560  1.3102 -0.3267
  232PVA    H9039420   1.435   1.871   5.678 -2.5000  2.5174  3.0809
  232PVA    C4639421   1.241   1.947   5.611 -0.4073  0.1881 -1.0753
  232PVA    H9139422   1.145   1.895   5.603 -0.2004 -0.2422 -0.8254
  232PVA    H9239423   1.231   2.012   5.698 -0.3137 -2.8036  1.3352
  232PVA    C4739424   1.251   2.037   5.487  0.4247 -0.6523  0.0127
  232PVA    H9339425   1.254   1.967   5.403 -0.6730  2.2887 -2.6847
  232PVA    O1639426   1.371   2.109   5.520 -0.2112  0.3404  0.4827
  232PVA    H9439427   1.351   2.165   5.596  0.8780  3.2108 -1.2010
  232PVA    C4839428   1.135   2.150   5.461 -1.0098  0.0120  0.4165
  232PVA    H9539429   1.042   2.095   5.479  0.2714 -1.8273  1.8463
  232PVA    H9639430   1.136   2.222   5.544  2.8244 -0.6636  1.1494
  232PVA    C4939431   1.161   2.224   5.316  0.2325 -0.2940 -0.2282
  232PVA    H9739432   1.171   2.154   5.233  0.1804  0.7015 -1.0917
  232PVA    H9839433   1.253   2.283   5.325  0.2635 -0.2048 -1.0623
  232PVA    C5039434   1.031   2.324   5.299 -0.6549 -0.3968 -0.0101
  232PVA    H9939435   0.977   2.289   5.388 -0.1925 -1.3071 -0.0833
  232PVA    O1739436   1.072   2.468   5.307 -0.0471  0.1186  0.5283
  232PVA   H10039437   1.075   2.508   5.396  1.6718  2.0340 -0.2946
  232PVA    C5139438   0.926   2.327   5.184  0.1245 -0.5028 -0.3357
  232PVA   H10139439   0.972   2.269   5.103 -0.6716 -0.7341 -0.6267
  232PVA   H10239440   0.839   2.272   5.221 -0.1840  2.3574  3.9062
  233PVA     C139441   4.707   6.776   1.430  0.7575 -0.1667  0.9018
  233PVA     H139442   4.814   6.797   1.422  0.5478  0.1972 -4.0840
  233PVA     H239443   4.689   6.674   1.396 -0.1046  0.0190  0.7506
  233PVA     C239444   4.658   6.775   1.570  1.2068 -0.4489  0.9201
  233PVA     H339445   4.548   6.778   1.568  0.7848  5.6272  4.9701
  233PVA     O139446   4.691   6.895   1.640  0.5697  0.0996  0.3743
  233PVA     H439447   4.650   6.964   1.586 -3.9544 -2.7722 -0.4409
  233PVA     C339448   4.716   6.636   1.619  0.4600 -0.0437  0.0951
  233PVA     H539449   4.640   6.566   1.584 -1.0090  1.6909 -0.3796
  233PVA     H639450   4.815   6.599   1.590  1.2461  1.9592  0.0717
  233PVA     C439451   4.722   6.625   1.784  1.3299 -0.3814  0.9412
  233PVA     H739452   4.815   6.677   1.810  0.0384  1.6778  1.5959
  233PVA     H839453   4.649   6.687   1.835 -0.0406  0.1866 -1.5256
  233PVA     C539454   4.739   6.484   1.841  0.3640  0.5534 -0.6987
  233PVA     H939455   4.831   6.440   1.801 -1.1394 -3.3054 -0.3914
  233PVA     O239456   4.626   6.391   1.818 -0.9697 -0.6673 -0.7111
  233PVA    H1039457   4.584   6.419   1.734 -1.3276  0.1153 -0.2794
  233PVA     C639458   4.770   6.503   1.990 -0.6921 -0.7809  0.1961
  233PVA    H1139459   4.844   6.583   2.002  0.6662 -1.3493 -3.1235
  233PVA    H1239460   4.681   6.525   2.049  1.1030  2.8507  1.8830
  233PVA     C739461   4.848   6.381   2.058  0.9224  0.2656  0.3321
  233PVA    H1339462   4.888   6.405   2.157  4.4202 -2.7498 -0.1389
  233PVA    H1439463   4.793   6.288   2.077  1.7707 -2.3041 -6.7858
  233PVA     C839464   4.973   6.347   1.990  0.2029 -0.8593 -0.9091
  233PVA    H1539465   4.966   6.321   1.884 -1.8595 -3.2414 -0.2900
  233PVA     O339466   5.077   6.444   2.012  0.5324  0.3346 -0.8601
  233PVA    H1639467   5.153   6.440   1.951  0.7612  0.4864 -0.5932
  233PVA     C939468   5.044   6.215   2.052 -0.1289 -0.1679 -0.3159
  233PVA    H1739469   4.991   6.128   2.011 -0.6619  1.7886 -4.2659
  233PVA    H1839470   5.028   6.208   2.160 -2.1218 -1.4133 -0.6362
  233PVA    C1039471   5.205   6.197   2.030 -0.2172 -0.1543 -0.0308
  233PVA    H1939472   5.240   6.206   1.927  2.3557  1.7287  0.9241
  233PVA    H2039473   5.272   6.274   2.069  2.3531 -1.9199 -0.7465
  233PVA    C1139474   5.255   6.046   2.067  0.6238 -0.1252  0.2520
  233PVA    H2139475   5.200   5.973   2.007 -0.8835 -0.2948  1.7699
  233PVA     O439476   5.212   6.022   2.197 -0.0543  0.5965 -0.5751
  233PVA    H2239477   5.269   6.045   2.273 -2.2347 -0.7726  1.6019
  233PVA    C1239478   5.408   6.007   2.046  1.2541 -0.2335  0.0390
  233PVA    H2339479   5.440   6.069   1.961 -4.6451  3.7325  0.0903
  233PVA    H2439480   5.457   6.043   2.137  2.2482  0.0532 -0.6007
  233PVA    C1339481   5.434   5.847   2.036  0.9418 -0.2469  0.2690
  233PVA    H2539482   5.387   5.807   1.946  3.8863  1.2255 -2.1145
  233PVA    H2639483   5.397   5.802   2.129 -2.2799  0.8864 -0.3504
  233PVA    C1439484   5.588   5.807   2.028 -0.8116  1.0336 -0.2336
  233PVA    H2739485   5.605   5.835   1.923  0.7984 -1.1402 -0.6365
  233PVA     O539486   5.667   5.881   2.128  0.0073  0.5050 -0.1195
  233PVA    H2839487   5.758   5.907   2.105  0.8903 -3.0043 -1.2815
  233PVA    C1539488   5.621   5.652   2.026 -0.4522 -0.3289 -0.5908
  233PVA    H2939489   5.702   5.650   1.952 -0.4210  2.5977 -0.7277
  233PVA    H3039490   5.528   5.614   1.983 -1.6788  1.8386 -0.0032
  233PVA    C1639491   5.641   5.583   2.165  0.3935 -0.0932 -0.2619
  233PVA    H3139492   5.747   5.594   2.193  0.6074 -0.9826 -0.6785
  233PVA    H3239493   5.586   5.639   2.241 -1.7353 -2.6178  0.2045
  233PVA    C1739494   5.594   5.437   2.182 -1.3461 -0.0658 -0.7162
  233PVA    H3339495   5.486   5.446   2.173 -1.4660  3.8233  2.0786
  233PVA     O639496   5.663   5.352   2.091 -0.5086  1.1402 -0.3783
  233PVA    H3439497   5.756   5.376   2.073  0.7369  0.5219  3.9706
  233PVA    C1839498   5.647   5.377   2.314 -2.0435  0.3216 -0.1089
  233PVA    H3539499   5.753   5.399   2.329 -1.1381 -3.4551  0.1312
  233PVA    H3639500   5.607   5.426   2.404  0.8961 -0.7812  1.9412
  233PVA    C1939501   5.625   5.215   2.328 -0.0574 -0.6500  0.8640
  233PVA    H3739502   5.676   5.151   2.255  0.4886  2.8263 -2.0948
  233PVA    H3839503   5.520   5.199   2.299 -1.6572  2.9249  3.8210
  233PVA    C2039504   5.649   5.142   2.469 -0.5701  0.4672 -0.7122
  233PVA    H3939505   5.751   5.104   2.481 -2.0136 -3.1642  1.9366
  233PVA     O739506   5.632   5.235   2.575  0.1968  0.2168 -0.6771
  233PVA    H4039507   5.693   5.310   2.578 -0.8042  1.1763  3.9783
  233PVA    C2139508   5.549   5.026   2.471 -0.0293 -1.3053  0.4199
  233PVA    H4139509   5.554   4.969   2.378 -1.1060 -0.0195 -0.4808
  233PVA    H4239510   5.447   5.067   2.472  0.3363 -0.3482 -0.0714
  233PVA    C2239511   5.566   4.919   2.576 -0.1162  0.0507  0.1036
  233PVA    H4339512   5.672   4.898   2.596 -1.2491 -2.6734  4.6315
  233PVA    H4439513   5.539   4.826   2.524 -0.8704  0.0811  0.4362
  233PVA    C2339514   5.489   4.930   2.715  0.6353 -0.4559 -0.2756
  233PVA    H4539515   5.389   4.969   2.691  0.9948 -0.2053 -1.4708
  233PVA     O839516   5.564   5.028   2.792 -0.3659 -1.5357 -0.2121
  233PVA    H4639517   5.544   5.102   2.732 -0.2775 -2.1872 -1.0656
  233PVA    C2439518   5.468   4.797   2.791 -0.0262 -0.4509 -0.1241
  233PVA    H4739519   5.414   4.722   2.731  0.7392 -2.1466  1.2294
  233PVA    H4839520   5.556   4.733   2.794 -2.8450 -4.7369  0.4696
  233PVA    C2539521   5.398   4.820   2.914 -0.4268 -0.1084  0.1478
  233PVA    H4939522   5.443   4.911   2.957 -0.0535  1.1071 -2.6374
  233PVA    H5039523   5.436   4.746   2.985  0.0643 -0.9756 -0.9983
  233PVA    C2639524   5.244   4.825   2.907  1.0529 -0.2419 -0.8141
  233PVA    H5139525   5.217   4.724   2.876 -0.8671  0.1350 -0.4467
  233PVA     O939526   5.195   4.931   2.810  0.1776  0.6424  0.0024
  233PVA    H5239527   5.265   4.941   2.743  1.2984 -0.5654  0.9469
  233PVA    C2739528   5.176   4.868   3.046  0.2197  0.2193 -0.1261
  233PVA    H5339529   5.208   4.970   3.074 -0.1524  0.2339  0.2370
  233PVA    H5439530   5.210   4.812   3.133 -1.5214 -0.9920 -0.1878
  233PVA    C2839531   5.026   4.849   3.037  0.4882 -0.4650  0.5363
  233PVA    H5539532   4.988   4.905   2.950 -0.2773 -2.1180 -0.2288
  233PVA    H5639533   5.010   4.744   3.008  1.4145 -0.5027  0.1264
  233PVA    C2939534   4.946   4.884   3.168 -0.2425  0.1258 -0.5158
  233PVA    H5739535   5.004   4.842   3.250 -0.1785 -0.6279 -0.9376
  233PVA    O1039536   4.945   5.024   3.178  0.0732  0.3473  0.2337
  233PVA    H5839537   4.997   5.063   3.106 -0.7647  0.4662 -0.3314
  233PVA    C3039538   4.791   4.826   3.155 -0.9211  0.6664 -0.4485
  233PVA    H5939539   4.787   4.769   3.061  2.2691 -0.3321 -0.0994
  233PVA    H6039540   4.709   4.899   3.147  0.6251  3.2242  3.8346
  233PVA    C3139541   4.756   4.736   3.281 -0.7523  1.1936  0.3922
  233PVA    H6139542   4.730   4.811   3.358  1.1193  1.7587  0.5311
  233PVA    H6239543   4.842   4.679   3.319 -0.3043  1.6744  0.1191
  233PVA    C3239544   4.645   4.639   3.278  0.1734  1.7125 -0.0835
  233PVA    H6339545   4.668   4.578   3.190 -2.3819 -1.1685  1.0242
  233PVA    O1139546   4.514   4.680   3.268 -0.1120 -0.9567 -1.2041
  233PVA    H6439547   4.502   4.732   3.187 -4.2154  0.3517  0.0026
  233PVA    C3339548   4.672   4.540   3.388 -0.1179  0.8117  0.3472
  233PVA    H6539549   4.669   4.581   3.489 -0.2631  0.7900  0.3517
  233PVA    H6639550   4.773   4.504   3.362  0.0807  0.0597  2.0545
  233PVA    C3439551   4.583   4.408   3.382  0.0042 -0.8175 -1.2121
  233PVA    H6739552   4.478   4.436   3.401 -0.3060  0.3987 -4.1615
  233PVA    H6839553   4.568   4.379   3.277 -5.2030  2.7974 -1.8664
  233PVA    C3539554   4.637   4.283   3.467 -0.4408  0.3641 -0.7284
  233PVA    H6939555   4.736   4.256   3.427  0.6186 -0.6495  2.2640
  233PVA    O1239556   4.549   4.168   3.441 -0.2050 -1.0212  0.1222
  233PVA    H7039557   4.481   4.180   3.509  1.1230  2.1898  1.0723
  233PVA    C3639558   4.651   4.308   3.624  0.3439 -0.0961 -0.2765
  233PVA    H7139559   4.711   4.399   3.629 -1.6657  1.2455  0.4145
  233PVA    H7239560   4.555   4.354   3.647  1.2755  0.8353  1.9825
  233PVA    C3739561   4.700   4.201   3.720 -0.2709  0.0200 -0.8207
  233PVA    H7339562   4.808   4.215   3.711 -0.3952  2.8522  0.8867
  233PVA    H7439563   4.672   4.104   3.677  1.7210  0.1336 -2.5147
  233PVA    C3839564   4.656   4.210   3.869 -0.3837  0.5405  1.0271
  233PVA    H7539565   4.693   4.307   3.905  0.6595  0.9343 -0.9562
  233PVA    O1339566   4.518   4.221   3.900 -0.4010  0.5062  0.8577
  233PVA    H7639567   4.489   4.313   3.887  3.7718  1.8011 -1.1760
  233PVA    C3939568   4.711   4.094   3.951 -0.8287  0.4771  0.5681
  233PVA    H7739569   4.714   4.007   3.884  1.5616  0.3748  0.7162
  233PVA    H7839570   4.817   4.113   3.970 -1.1363  2.2335  0.7544
  233PVA    C4039571   4.638   4.038   4.088 -0.7058 -0.0298 -0.1028
  233PVA    H7939572   4.645   4.113   4.168 -2.4490 -0.5769  0.6246
  233PVA    H8039573   4.529   4.028   4.083 -0.7091  0.7439 -2.3307
  233PVA    C4139574   4.697   3.906   4.143 -0.7758 -0.3406 -0.7482
  233PVA    H8139575   4.728   3.845   4.057 -0.1757 -2.9227  1.1783
  233PVA    O1439576   4.823   3.935   4.222  0.5837 -0.8795  0.0019
  233PVA    H8239577   4.891   3.965   4.160 -0.0224  1.0312  0.1914
  233PVA    C4239578   4.594   3.832   4.224 -0.0144  0.2284  0.4221
  233PVA    H8339579   4.616   3.875   4.323 -0.0166  2.2611 -0.4149
  233PVA    H8439580   4.488   3.847   4.202 -0.9115 -2.7366  2.1008
  233PVA    C4339581   4.627   3.670   4.230  0.8120 -0.0126  0.1679
  233PVA    H8539582   4.735   3.652   4.225  0.8647  0.3266  0.0891
  233PVA    H8639583   4.590   3.631   4.134 -0.4991  2.4149 -0.4073
  233PVA    C4439584   4.538   3.592   4.331  0.4062  0.1847 -0.8168
  233PVA    H8739585   4.437   3.608   4.292 -1.0494 -0.3221  2.3912
  233PVA    O1539586   4.522   3.658   4.458  0.2783  0.0555 -0.5818
  233PVA    H8839587   4.565   3.745   4.449 -1.5237  1.0717  0.0976
  233PVA    C4539588   4.552   3.444   4.346  0.0155 -0.2852  0.7067
  233PVA    H8939589   4.623   3.431   4.429  2.3622 -1.0284 -1.2699
  233PVA    H9039590   4.592   3.396   4.256 -1.2002 -4.0592  1.9595
  233PVA    C4639591   4.416   3.385   4.403 -0.2166 -0.5027  0.6245
  233PVA    H9139592   4.384   3.430   4.498  2.6605  2.2392  0.4575
  233PVA    H9239593   4.329   3.409   4.341  0.7560 -4.9047 -2.9824
  233PVA    C4739594   4.424   3.232   4.411  0.3803 -0.1084 -0.5993
  233PVA    H9339595   4.463   3.209   4.311  1.0182  1.5438 -0.7759
  233PVA    O1639596   4.513   3.186   4.517 -1.4221 -0.0056 -0.1085
  233PVA    H9439597   4.603   3.221   4.502 -1.0331 -1.4921 -1.5226
  233PVA    C4839598   4.283   3.156   4.427 -0.3376  0.7170  1.4319
  233PVA    H9539599   4.251   3.165   4.532 -1.6822 -1.7703  1.3216
  233PVA    H9639600   4.208   3.214   4.372  1.3130  2.2154  0.6700
  233PVA    C4939601   4.290   2.999   4.386 -0.9498 -0.3215 -1.0146
  233PVA    H9739602   4.378   2.955   4.435 -2.1462 -1.1732  0.4884
  233PVA    H9839603   4.312   2.977   4.281 -4.7228 -2.8271 -1.4887
  233PVA    C5039604   4.166   2.908   4.412  0.4330 -0.6419 -0.6383
  233PVA    H9939605   4.194   2.802   4.402 -0.0200 -0.6232 -2.5518
  233PVA    O1739606   4.118   2.945   4.546 -0.4184  0.1889  0.3967
  233PVA   H10039607   4.199   2.930   4.598 -0.7822  2.3335  1.7050
  233PVA    C5139608   4.041   2.932   4.311 -0.1403 -0.2321  0.2536
  233PVA   H10139609   3.988   3.023   4.340  0.0258  0.4656 -1.5301
  233PVA   H10239610   4.077   2.944   4.208 -3.3060 -0.5218 -1.0084
  234PVA     C139611   1.562   2.604   4.658 -0.4879 -0.5387  0.5656
  234PVA     H139612   1.502   2.554   4.735 -2.6629  1.0009 -0.0389
  234PVA     H239613   1.609   2.683   4.717 -0.4449 -0.7590  0.8305
  234PVA     C239614   1.677   2.499   4.623 -0.5653 -0.3525 -0.1358
  234PVA     H339615   1.728   2.525   4.529  0.7403 -1.5713  0.2043
  234PVA     O139616   1.624   2.371   4.619  0.1272  0.4399  0.2444
  234PVA     H439617   1.688   2.319   4.671 -0.2250 -0.4954 -0.2497
  234PVA     C339618   1.787   2.505   4.729 -0.3822  0.5898  0.3292
  234PVA     H539619   1.745   2.500   4.830  0.4060  0.5576  0.6666
  234PVA     H639620   1.840   2.600   4.716  2.6619 -1.1598 -1.2342
  234PVA     C439621   1.903   2.401   4.722 -0.7123 -0.1354 -0.3907
  234PVA     H739622   1.853   2.303   4.730 -0.9601 -0.0805 -1.1601
  234PVA     H839623   1.953   2.403   4.624 -2.3674 -0.9847 -1.3277
  234PVA     C539624   2.020   2.428   4.828 -0.1896 -0.0197 -0.0116
  234PVA     H939625   2.069   2.515   4.784  1.7701 -1.9427 -1.8325
  234PVA     O239626   1.967   2.478   4.956  0.0558  0.3078  0.2767
  234PVA    H1039627   2.055   2.499   4.991 -0.3644 -0.7390  2.1020
  234PVA     C639628   2.153   2.342   4.858 -1.1662  0.3450  0.1838
  234PVA    H1139629   2.235   2.415   4.856  0.2676 -1.1431  1.3270
  234PVA    H1239630   2.168   2.297   4.758  2.6618  2.9958 -0.6674
  234PVA     C739631   2.176   2.223   4.971  0.6318  0.2955  0.2236
  234PVA    H1339632   2.117   2.250   5.060 -0.1738  1.9670 -0.7606
  234PVA    H1439633   2.130   2.132   4.932  2.9552 -0.8755  0.0572
  234PVA     C839634   2.333   2.167   4.998  0.0781  0.4829  0.7552
  234PVA    H1539635   2.406   2.248   4.983  1.2791 -0.6902 -0.0284
  234PVA     O339636   2.375   2.076   4.890  0.6409 -0.4772 -0.5520
  234PVA    H1639637   2.451   2.127   4.859  1.6828  0.0353  2.5300
  234PVA     C939638   2.368   2.103   5.137 -0.3686 -0.7866  0.3062
  234PVA    H1739639   2.371   1.993   5.140 -0.2753 -0.9316 -2.5606
  234PVA    H1839640   2.295   2.152   5.203 -0.1710  3.0897 -2.0213
  234PVA    C1039641   2.502   2.134   5.201 -0.8976  0.0978  0.2291
  234PVA    H1939642   2.570   2.051   5.176 -0.3926  0.0851  1.5887
  234PVA    H2039643   2.563   2.219   5.167 -0.1335 -1.3262 -2.2439
  234PVA    C1139644   2.507   2.123   5.367 -0.4737 -1.7990  0.1378
  234PVA    H2139645   2.442   2.205   5.401  2.5818  0.5727  0.6784
  234PVA     O439646   2.458   1.992   5.394  0.2026  0.1745 -0.6280
  234PVA    H2239647   2.361   1.986   5.395  0.1400 -0.5937 -2.9713
  234PVA    C1239648   2.639   2.148   5.449 -0.0285  0.8872  0.2158
  234PVA    H2339649   2.727   2.116   5.392 -0.1362  0.2676  0.3873
  234PVA    H2439650   2.661   2.255   5.457 -2.6280  1.5218 -0.1951
  234PVA    C1339651   2.650   2.094   5.598 -0.6297 -0.4566 -0.7426
  234PVA    H2539652   2.639   1.985   5.589 -1.2391 -0.3810 -0.9761
  234PVA    H2639653   2.571   2.124   5.668 -0.7225  1.0003 -1.4417
  234PVA    C1439654   2.794   2.072   5.665 -1.0078 -0.8184  0.7358
  234PVA    H2739655   2.869   2.087   5.587 -0.1276  0.4030  1.7824
  234PVA     O539656   2.837   2.187   5.746 -0.6820  0.7947  0.2463
  234PVA    H2839657   2.934   2.192   5.737 -0.6209  2.0889  1.2876
  234PVA    C1539658   2.808   1.939   5.749 -0.2886  0.3945 -0.3670
  234PVA    H2939659   2.768   1.858   5.687 -1.7991  4.1526 -4.8675
  234PVA    H3039660   2.739   1.964   5.831 -1.9828  5.4293 -2.9509
  234PVA    C1639661   2.962   1.930   5.799 -0.7473 -0.4518  0.1072
  234PVA    H3139662   3.032   1.968   5.723  1.1679 -0.5382  1.7614
  234PVA    H3239663   2.985   2.005   5.875  2.7765 -0.5083 -0.7264
  234PVA    C1739664   3.015   1.803   5.871  0.1614  0.3142 -0.4374
  234PVA    H3339665   2.943   1.795   5.954  1.4100  2.3875  0.9209
  234PVA     O639666   2.998   1.703   5.779  0.2750  0.7882  0.6929
  234PVA    H3439667   3.055   1.742   5.710  0.1741 -1.2282 -0.6360
  234PVA    C1839668   3.173   1.796   5.919 -0.7564 -0.0643  0.5349
  234PVA    H3539669   3.228   1.775   5.827 -1.1509  0.0986  0.2606
  234PVA    H3639670   3.211   1.893   5.954  2.7619 -0.3392 -2.0485
  234PVA    C1939671   3.236   1.687   6.001 -0.1024  0.2076 -0.1029
  234PVA    H3739672   3.201   1.595   5.952 -2.5700 -0.5518  2.7787
  234PVA    H3839673   3.200   1.684   6.105  0.6858  3.2147  0.3557
  234PVA    C2039674   3.390   1.683   6.030  0.4362 -0.1962 -0.1236
  234PVA    H3939675   3.419   1.771   6.088  1.5729  1.2796 -2.7453
  234PVA     O739676   3.476   1.712   5.928 -0.4323  0.0892  0.8475
  234PVA    H4039677   3.466   1.630   5.876  0.8799  0.0730  0.5944
  234PVA    C2139678   3.432   1.548   6.103  0.2057  0.9057 -0.0200
  234PVA    H4139679   3.400   1.469   6.034  1.8600  2.6699 -3.0803
  234PVA    H4239680   3.370   1.516   6.187  1.0684 -3.2489 -0.7598
  234PVA    C2239681   3.579   1.492   6.122 -0.5794 -1.0501  0.8379
  234PVA    H4339682   3.649   1.520   6.042 -0.2992  3.3856  2.3076
  234PVA    H4439683   3.627   1.545   6.205  3.2772 -0.0050 -1.7710
  234PVA    C2339684   3.601   1.345   6.172 -0.9405 -0.3820  0.2517
  234PVA    H4539685   3.573   1.288   6.083 -0.6292  2.4134 -1.7697
  234PVA     O839686   3.525   1.315   6.284 -0.0342  0.3237  0.2529
  234PVA    H4639687   3.573   1.371   6.347  2.5671  0.7225 -1.8848
  234PVA    C2439688   3.746   1.286   6.210  0.6479  0.0933  0.7371
  234PVA    H4739689   3.804   1.273   6.117  1.5494 -0.6568  1.3873
  234PVA    H4839690   3.805   1.354   6.272  0.7610  0.8862 -0.2098
  234PVA    C2539691   3.758   1.142   6.289  0.4762 -1.1357  1.4046
  234PVA    H4939692   3.660   1.095   6.303  0.3944 -1.2611  0.4539
  234PVA    H5039693   3.774   1.156   6.397 -0.6255 -0.1794  1.4711
  234PVA    C2639694   3.872   1.039   6.261 -0.0499 -0.3681  1.5788
  234PVA    H5139695   3.913   1.033   6.160 -1.4494 -1.7685  1.0542
  234PVA     O939696   3.968   1.081   6.346 -0.3278 -0.5848  1.1997
  234PVA    H5239697   4.000   1.165   6.310 -1.4367 -0.5178  0.3213
  234PVA    C2739698   3.843   0.892   6.297  0.3172  0.0570 -0.0159
  234PVA    H5339699   3.796   0.883   6.396 -0.6206  3.0583 -0.0909
  234PVA    H5439700   3.944   0.851   6.309  1.3150  1.5381 -2.5739
  234PVA    C2839701   3.774   0.781   6.200 -1.9881 -0.6112  0.5860
  234PVA    H5539702   3.805   0.685   6.245  0.2732  0.2032  0.9107
  234PVA    H5639703   3.668   0.758   6.209 -1.6916 -3.8005 -2.0021
  234PVA    C2939704   3.815   0.772   6.044 -0.8270 -0.1115 -0.3261
  234PVA    H5739705   3.851   0.870   6.013  0.1446 -0.8785 -1.7131
  234PVA    O1039706   3.929   0.680   6.053  0.4744  0.9188 -0.4524
  234PVA    H5839707   3.909   0.627   6.132 -1.9043  0.8137 -1.0632
  234PVA    C3039708   3.706   0.710   5.957 -0.2986 -0.5701 -0.8317
  234PVA    H5939709   3.611   0.757   5.989 -0.7630 -1.1798 -1.2946
  234PVA    H6039710   3.691   0.615   6.010 -2.4714 -0.8419 -1.8054
  234PVA    C3139711   3.700   0.686   5.792 -0.6750  0.9384  0.9528
  234PVA    H6139712   3.658   0.586   5.774 -2.5518  1.3937  2.4823
  234PVA    H6239713   3.797   0.694   5.741 -1.0521  1.6386  0.3168
  234PVA    C3239714   3.607   0.761   5.686 -0.5102  0.7867 -0.6311
  234PVA    H6339715   3.527   0.806   5.747 -1.2523  0.1574 -1.1177
  234PVA    O1139716   3.561   0.670   5.595 -0.6591 -0.4000 -0.1283
  234PVA    H6439717   3.551   0.720   5.512 -3.7224 -0.0694  0.3332
  234PVA    C3339718   3.677   0.875   5.611 -0.5064 -0.5561  1.3232
  234PVA    H6539719   3.774   0.835   5.579 -0.4578  1.7407 -1.8241
  234PVA    H6639720   3.676   0.952   5.690  0.4316  1.9661 -0.9587
  234PVA    C3439721   3.629   0.945   5.485  0.2458 -1.0767 -0.2824
  234PVA    H6739722   3.652   0.879   5.401 -0.3909 -0.0454 -1.2990
  234PVA    H6839723   3.520   0.959   5.482 -0.1146 -1.9660  3.6045
  234PVA    C3539724   3.659   1.096   5.463 -0.8062  0.0972 -0.7181
  234PVA    H6939725   3.763   1.114   5.492 -1.2861  1.8422  0.0520
  234PVA    O1239726   3.598   1.186   5.556  0.1878  0.4078 -1.3719
  234PVA    H7039727   3.502   1.178   5.538  0.2747 -1.0125 -1.2564
  234PVA    C3639728   3.655   1.137   5.308  0.0622  0.1888 -0.5793
  234PVA    H7139729   3.757   1.172   5.289  1.2948 -1.4517  2.3731
  234PVA    H7239730   3.622   1.053   5.246 -2.1128  1.0773 -0.7190
  234PVA    C3739731   3.564   1.247   5.263  0.4659 -0.0427  0.6348
  234PVA    H7339732   3.621   1.338   5.288  1.1620  0.8159 -3.4148
  234PVA    H7439733   3.464   1.241   5.307  1.2011 -1.0104  2.2429
  234PVA    C3839734   3.542   1.251   5.108  0.0932 -0.0644  1.0084
  234PVA    H7539735   3.645   1.224   5.080  0.4365 -1.9534  3.6422
  234PVA    O1339736   3.450   1.145   5.069 -0.6002  0.6403 -1.0078
  234PVA    H7639737   3.399   1.174   4.992  0.2295 -1.1733 -2.3220
  234PVA    C3939738   3.509   1.386   5.049  0.4291  0.4016 -0.4810
  234PVA    H7739739   3.570   1.460   5.102 -2.6569  3.0342 -0.3195
  234PVA    H7839740   3.405   1.413   5.069  0.6324 -0.3101  1.8244
  234PVA    C4039741   3.520   1.433   4.901  0.0873 -0.1617 -0.0073
  234PVA    H7939742   3.436   1.388   4.846  1.2629  0.9887 -2.9967
  234PVA    H8039743   3.606   1.378   4.860  1.5454  1.0509  1.3108
  234PVA    C4139744   3.510   1.588   4.865  0.7005  0.2926  0.8230
  234PVA    H8139745   3.421   1.623   4.921  0.2561 -1.9902  1.6456
  234PVA    O1439746   3.625   1.654   4.926  0.8529 -0.5692 -0.5335
  234PVA    H8239747   3.624   1.661   5.023 -4.4057  0.9444 -0.4052
  234PVA    C4239748   3.502   1.617   4.710 -0.3860 -0.1923 -0.6786
  234PVA    H8339749   3.404   1.599   4.663  0.8370 -2.3074 -2.6556
  234PVA    H8439750   3.565   1.539   4.665 -1.6549 -0.7034 -1.6334
  234PVA    C4339751   3.564   1.747   4.657 -0.8017  0.7620  0.7504
  234PVA    H8539752   3.504   1.834   4.689  0.6452  1.3402  2.0567
  234PVA    H8639753   3.664   1.773   4.694 -1.3048 -0.8847  3.5606
  234PVA    C4439754   3.572   1.738   4.502 -0.0720  0.4328 -0.0687
  234PVA    H8739755   3.632   1.649   4.478 -1.4973 -1.3389  2.5288
  234PVA    O1539756   3.453   1.701   4.423 -0.2646  0.8593 -0.6104
  234PVA    H8839757   3.402   1.784   4.431 -1.8139 -0.0178 -0.9934
  234PVA    C4539758   3.651   1.857   4.445 -0.4950  0.7704  0.4559
  234PVA    H8939759   3.757   1.831   4.454 -1.1065 -2.3952 -0.2188
  234PVA    H9039760   3.633   1.953   4.495 -2.3650  1.2831 -1.0728
  234PVA    C4639761   3.621   1.877   4.289 -0.5812  0.1965 -0.1954
  234PVA    H9139762   3.629   1.776   4.246  3.0507 -0.0385  0.6601
  234PVA    H9239763   3.514   1.899   4.282 -0.8661 -1.3913 -1.2594
  234PVA    C4739764   3.688   1.972   4.188 -0.2207 -0.4402  1.2927
  234PVA    H9339765   3.650   1.949   4.087  2.0532 -4.6375  1.1612
  234PVA    O1639766   3.824   1.943   4.199  0.7848 -0.1832  0.6054
  234PVA    H9439767   3.820   1.846   4.210  0.7632 -0.2456  0.0906
  234PVA    C4839768   3.670   2.125   4.205  0.5830 -1.0494  0.4155
  234PVA    H9539769   3.565   2.154   4.198  0.6092 -0.4009  2.1778
  234PVA    H9639770   3.697   2.141   4.310 -0.4123  0.0514  0.5206
  234PVA    C4939771   3.761   2.228   4.128  0.7483 -0.2109  0.7958
  234PVA    H9739772   3.749   2.209   4.021 -0.0239  1.8140  0.4774
  234PVA    H9839773   3.868   2.204   4.136  0.5582 -1.4625 -0.1677
  234PVA    C5039774   3.736   2.381   4.131  0.7689  0.9862  0.0146
  234PVA    H9939775   3.685   2.404   4.036  6.3067 -0.3524 -3.7615
  234PVA    O1739776   3.634   2.410   4.229  0.0464  0.6006  0.2550
  234PVA   H10039777   3.566   2.461   4.182 -0.6741  0.3606  1.0074
  234PVA    C5139778   3.857   2.472   4.111  0.0978 -0.0922  0.6539
  234PVA   H10139779   3.871   2.487   4.003  0.3159 -3.3334  0.1177
  234PVA   H10239780   3.943   2.407   4.136 -0.7611 -2.2136 -1.4956
  235PVA     C139781   1.342   2.994   4.365  0.0681 -1.8793  0.1778
  235PVA     H139782   1.427   3.063   4.368 -4.5281  4.7472 -1.0628
  235PVA     H239783   1.359   2.950   4.266 -2.4488  2.7703 -2.6526
  235PVA     C239784   1.208   3.059   4.389 -0.6422  0.6411 -0.1700
  235PVA     H339785   1.146   2.969   4.380  0.2103  0.2521 -3.3368
  235PVA     O139786   1.211   3.139   4.507  0.3593  0.7462  0.8575
  235PVA     H439787   1.147   3.092   4.562 -1.5069  3.4060  1.1232
  235PVA     C339788   1.142   3.148   4.282  0.2158  0.4158 -0.0244
  235PVA     H539789   1.047   3.184   4.324 -1.3643 -1.2208 -2.0151
  235PVA     H639790   1.131   3.074   4.202 -2.9983 -1.1974  1.7230
  235PVA     C439791   1.224   3.273   4.220 -1.0989  0.5268  0.4724
  235PVA     H739792   1.273   3.335   4.296  3.2279 -1.2721 -0.5079
  235PVA     H839793   1.306   3.233   4.159 -0.1832  0.3693  1.7537
  235PVA     C539794   1.128   3.349   4.132  0.7351 -0.5251 -0.7915
  235PVA     H939795   1.043   3.280   4.122  0.1428  0.1717 -0.6813
  235PVA     O239796   1.093   3.449   4.215  0.1770  0.1338 -0.3195
  235PVA    H1039797   1.172   3.506   4.219  0.3131 -0.0851  0.2995
  235PVA     C639798   1.178   3.407   3.997  0.7979 -0.3160  0.3784
  235PVA    H1139799   1.260   3.475   4.023  2.8014 -2.9602  1.5098
  235PVA    H1239800   1.228   3.335   3.931 -2.9136 -3.5392  0.7066
  235PVA     C739801   1.057   3.474   3.917 -0.1694 -0.0081  0.6593
  235PVA    H1339802   0.992   3.545   3.970 -0.5854  0.5648 -0.5766
  235PVA    H1439803   0.995   3.385   3.898  1.4887 -1.7196  2.7610
  235PVA     C839804   1.102   3.546   3.790 -0.1466 -0.2962  0.0699
  235PVA    H1539805   1.138   3.468   3.721 -2.3584 -0.5389 -0.8761
  235PVA     O339806   1.208   3.631   3.813  0.3445  0.1903 -0.2067
  235PVA    H1639807   1.269   3.583   3.872  1.9843  2.2306 -0.1341
  235PVA     C939808   0.997   3.618   3.694 -0.0692 -0.3481 -0.1421
  235PVA    H1739809   1.051   3.633   3.599  0.7342 -1.5138  0.1097
  235PVA    H1839810   0.965   3.718   3.725 -1.6245 -0.9283  0.1844
  235PVA    C1039811   0.864   3.534   3.654 -0.3189 -1.0043  0.8676
  235PVA    H1939812   0.895   3.440   3.607  2.4344 -0.1514  0.7820
  235PVA    H2039813   0.802   3.512   3.742 -0.9533  5.3905  2.4779
  235PVA    C1139814   0.751   3.599   3.566 -0.2667 -0.3263 -0.3960
  235PVA    H2139815   0.681   3.670   3.610 -1.4393 -1.9489  0.4508
  235PVA     O439816   0.812   3.670   3.461  0.2836  0.8296  0.3791
  235PVA    H2239817   0.905   3.644   3.451 -0.2577 -0.9819 -0.4095
  235PVA    C1239818   0.666   3.484   3.516 -0.7979 -0.1311  0.3259
  235PVA    H2339819   0.644   3.412   3.596 -1.2545  0.8019  1.0476
  235PVA    H2439820   0.726   3.422   3.447 -0.7451  3.0145 -2.7398
  235PVA    C1339821   0.534   3.538   3.463 -0.6788 -1.7423  0.0069
  235PVA    H2539822   0.484   3.573   3.554  0.2388 -2.9002  0.9862
  235PVA    H2639823   0.535   3.614   3.384 -0.1066 -3.4330 -1.6929
  235PVA    C1439824   0.453   3.415   3.417  0.1588  0.4198  0.2504
  235PVA    H2739825   0.515   3.346   3.358  2.8520 -0.5710  3.9134
  235PVA     O539826   0.412   3.339   3.528 -0.2202  0.6593 -0.0305
  235PVA    H2839827   0.387   3.247   3.512  0.0723  0.8048 -1.4001
  235PVA    C1539828   0.331   3.436   3.316  0.2199  0.3069 -0.2726
  235PVA    H2939829   0.364   3.498   3.232 -0.6741 -2.4136 -2.8475
  235PVA    H3039830   0.252   3.494   3.365 -0.0742 -0.3547  0.0489
  235PVA    C1639831   0.282   3.307   3.260 -0.4334  0.0970 -0.0340
  235PVA    H3139832   0.367   3.244   3.231  0.6412  2.3577 -2.1575
  235PVA    H3239833   0.248   3.243   3.342  0.9838 -2.9534 -1.6433
  235PVA    C1739834   0.187   3.320   3.129  0.3615  0.1145 -0.0943
  235PVA    H3339835   0.261   3.343   3.052  3.3978 -3.4853  1.4732
  235PVA     O639836   0.108   3.201   3.112 -0.2360 -0.9829  0.0274
  235PVA    H3439837   0.023   3.211   3.066 -1.0327 -2.4539  1.1016
  235PVA    C1839838   0.092   3.437   3.135 -0.0645 -0.4490  0.4288
  235PVA    H3539839   0.014   3.433   3.211  0.1758 -1.5033  0.6257
  235PVA    H3639840   0.162   3.521   3.149  0.7676 -0.7952 -1.3633
  235PVA    C1939841   0.023   3.476   3.002  0.6267  1.7574 -0.4913
  235PVA    H3739842   7.702   3.409   3.003  0.5861  1.6356 -3.4302
  235PVA    H3839843   0.084   3.426   2.926 -2.4752 -1.2193 -1.2725
  235PVA    C2039844   7.742   3.613   2.979 -0.0366 -0.6321 -0.7503
  235PVA    H3939845   0.064   3.678   2.968  0.3079 -0.0254  3.8994
  235PVA     O739846   7.662   3.647   3.092  0.3856 -0.2123 -0.0082
  235PVA    H4039847   7.647   3.743   3.093  2.7933  0.2975  2.6471
  235PVA    C2139848   7.629   3.630   2.863  0.9708  0.6206  0.0439
  235PVA    H4139849   7.658   3.570   2.776  2.1646  2.6978 -1.0757
  235PVA    H4239850   7.532   3.594   2.899  0.4271  1.1436 -0.8568
  235PVA    C2239851   7.615   3.777   2.815  0.4015  0.3083 -0.2324
  235PVA    H4339852   7.622   3.844   2.902  1.7542  1.5784 -1.2734
  235PVA    H4439853   7.713   3.800   2.771  1.9362 -3.3129  0.9172
  235PVA    C2339854   7.497   3.797   2.723 -0.0715 -0.2399  0.4060
  235PVA    H4539855   7.515   3.729   2.639 -0.9582  0.6164 -0.5054
  235PVA     O839856   7.371   3.764   2.784 -0.7102 -0.5725 -0.0558
  235PVA    H4639857   7.315   3.814   2.722  0.0609  0.3974  0.0115
  235PVA    C2439858   7.483   3.939   2.673 -0.6083 -0.4822  0.5195
  235PVA    H4739859   7.506   4.011   2.753 -0.1087 -2.3132  2.1093
  235PVA    H4839860   7.557   3.943   2.592 -0.3202  1.7711  0.8028
  235PVA    C2539861   7.345   3.981   2.613 -0.6415 -0.3976  0.3319
  235PVA    H4939862   7.344   3.916   2.525 -0.3766 -0.7476  0.5810
  235PVA    H5039863   7.273   3.960   2.693  2.0107 -4.0979  2.0786
  235PVA    C2639864   7.336   4.133   2.561  0.3867 -0.3270 -0.2536
  235PVA    H5139865   7.236   4.162   2.526 -0.4728 -0.7998  1.6513
  235PVA     O939866   7.368   4.227   2.662 -0.0881 -0.0050 -0.1288
  235PVA    H5239867   7.464   4.210   2.655  0.2029  0.7777  1.4409
  235PVA    C2739868   7.442   4.163   2.450  1.0210 -0.3097 -0.7539
  235PVA    H5339869   7.446   4.082   2.377 -0.1832  2.9855 -4.8906
  235PVA    H5439870   7.538   4.173   2.502  0.4801 -1.4267  0.5298
  235PVA    C2839871   7.418   4.305   2.378 -0.5061  0.4217 -0.0383
  235PVA    H5539872   7.322   4.321   2.328 -0.1667 -0.8965 -1.1480
  235PVA    H5639873   7.389   4.372   2.460  4.8787  1.0309  1.7675
  235PVA    C2939874   7.523   4.358   2.283 -0.3372 -0.0271  0.8764
  235PVA    H5739875   7.499   4.462   2.258 -0.5845  0.2136  2.0664
  235PVA    O1039876   7.658   4.345   2.333  0.3353  0.1584 -0.0074
  235PVA    H5839877   7.712   4.396   2.270 -0.5503  3.5156  1.7009
  235PVA    C3039878   7.518   4.283   2.145 -0.6710 -0.6603 -0.5141
  235PVA    H5939879   7.530   4.177   2.173  0.7386  0.5795  4.7148
  235PVA    H6039880   7.417   4.269   2.107 -0.9969 -0.2623  0.1795
  235PVA    C3139881   7.631   4.336   2.037  0.4062 -0.5123  0.6876
  235PVA    H6139882   7.717   4.361   2.100  1.1367 -0.5499 -0.2659
  235PVA    H6239883   7.612   4.433   1.989 -1.6850 -2.1436 -2.0614
  235PVA    C3239884   7.665   4.229   1.928 -1.0789 -0.2122  0.8092
  235PVA    H6339885   7.701   4.133   1.967  4.3837  1.0807 -0.1430
  235PVA    O1139886   7.547   4.217   1.846  0.4273  0.4964 -0.7204
  235PVA    H6439887   7.562   4.143   1.785 -1.0695  1.4507 -2.3555
  235PVA    C3339888   0.028   4.264   1.843 -0.4392 -0.2234 -0.3549
  235PVA    H6539889   0.023   4.363   1.795  0.2669 -1.2483 -2.6864
  235PVA    H6639890   0.021   4.197   1.756 -2.3704  0.9403 -1.1744
  235PVA    C3439891   0.171   4.234   1.909 -0.6878  0.4635 -1.0093
  235PVA    H6739892   0.189   4.325   1.968 -1.1660  3.4995 -5.1068
  235PVA    H6839893   0.175   4.161   1.991  0.2319  0.2608 -1.2209
  235PVA    C3539894   0.292   4.214   1.825  0.7927 -0.7262  1.8762
  235PVA    H6939895   0.347   4.308   1.813 -1.0495  0.3156  1.0829
  235PVA    O1239896   0.252   4.174   1.695 -0.6884 -0.8518 -0.2647
  235PVA    H7039897   0.190   4.099   1.691  1.7243 -3.0148  0.2167
  235PVA    C3639898   0.388   4.111   1.873 -0.4119  0.7156 -0.5328
  235PVA    H7139899   0.451   4.127   1.961  0.5121 -0.3304 -0.9855
  235PVA    H7239900   0.328   4.025   1.903 -1.1072  1.2589 -0.3348
  235PVA    C3739901   0.504   4.075   1.762 -0.9679 -0.0765  0.4276
  235PVA    H7339902   0.549   4.163   1.716 -2.2275 -0.1590 -1.0578
  235PVA    H7439903   0.459   4.031   1.672  0.6949 -0.6412 -0.1646
  235PVA    C3839904   0.621   3.973   1.800  0.0878 -0.4631  0.9770
  235PVA    H7539905   0.626   3.977   1.909  0.5792  3.7154  0.9653
  235PVA    O1339906   0.575   3.839   1.778  0.4859 -0.1014  0.3362
  235PVA    H7639907   0.617   3.773   1.836  1.0203 -0.4803 -0.4794
  235PVA    C3939908   0.767   4.002   1.734  0.8437  0.0518  0.6142
  235PVA    H7739909   0.743   4.047   1.637 -1.2836 -3.1591 -0.5140
  235PVA    H7839910   0.826   4.075   1.792  2.7513 -1.4316  0.6098
  235PVA    C4039911   0.858   3.878   1.708 -0.1529  0.3035 -0.1202
  235PVA    H7939912   0.808   3.810   1.638  0.9491 -0.8253  0.1627
  235PVA    H8039913   0.876   3.827   1.804  2.8008  2.2508  0.4624
  235PVA    C4139914   1.005   3.912   1.659  0.6498  1.5040 -0.5961
  235PVA    H8139915   1.027   4.003   1.602  3.9980 -2.0645 -5.9635
  235PVA    O1439916   1.059   3.931   1.788 -0.0374  0.2709  0.6592
  235PVA    H8239917   0.998   3.881   1.844  0.2993 -2.0232 -0.8830
  235PVA    C4239918   1.084   3.783   1.574  0.2482  0.0609 -0.0339
  235PVA    H8339919   1.055   3.802   1.470 -4.6739 -3.4387  0.3537
  235PVA    H8439920   1.037   3.688   1.602  2.0619 -1.2391 -1.1471
  235PVA    C4339921   1.238   3.772   1.586  0.2755  0.6266  0.2865
  235PVA    H8539922   1.265   3.877   1.603  2.0152  0.1369  0.7170
  235PVA    H8639923   1.255   3.718   1.680 -1.4700 -1.9358 -0.7524
  235PVA    C4439924   1.307   3.699   1.466  0.0984 -0.4821 -0.3449
  235PVA    H8739925   1.252   3.730   1.376 -0.7451 -1.0293 -0.0383
  235PVA    O1539926   1.287   3.552   1.469 -0.4221 -0.1875  0.3890
  235PVA    H8839927   1.325   3.511   1.389  1.3665 -2.5976  2.3133
  235PVA    C4539928   1.456   3.731   1.450  0.0765 -0.1589 -0.3233
  235PVA    H8939929   1.502   3.674   1.369  1.5798  1.0264 -0.3481
  235PVA    H9039930   1.510   3.692   1.537  1.2413 -3.0014 -2.1765
  235PVA    C4639931   1.485   3.884   1.441  1.0368 -0.3196 -0.4224
  235PVA    H9139932   1.457   3.928   1.537 -2.8538 -1.5214 -0.8279
  235PVA    H9239933   1.426   3.934   1.363  0.4923 -1.0991 -0.5212
  235PVA    C4739934   1.629   3.908   1.392  0.2465 -0.0858 -0.4966
  235PVA    H9339935   1.649   3.832   1.315  0.9933 -1.3869  0.9168
  235PVA    O1639936   1.727   3.868   1.487  1.0781 -0.1918  0.3788
  235PVA    H9439937   1.683   3.885   1.572 -2.7814  0.3630 -1.5032
  235PVA    C4839938   1.658   4.052   1.332 -0.3757  0.2227  1.2825
  235PVA    H9539939   1.657   4.128   1.412 -1.2578  2.1310 -0.4434
  235PVA    H9639940   1.582   4.088   1.261 -0.4558  2.6659  2.4954
  235PVA    C4939941   1.810   4.052   1.274 -0.8853  0.9516  1.0702
  235PVA    H9739942   1.877   4.011   1.351 -4.0833 -4.7702  1.3816
  235PVA    H9839943   1.818   3.975   1.196  4.0890  1.5923  0.6181
  235PVA    C5039944   1.856   4.176   1.210 -0.8180 -0.4906  0.1039
  235PVA    H9939945   1.801   4.188   1.116 -0.2045 -0.0635 -0.2102
  235PVA    O1739946   1.825   4.294   1.277 -0.4157  0.4598 -0.4647
  235PVA   H10039947   1.737   4.311   1.317 -0.5943  1.9624 -1.4095
  235PVA    C5139948   2.003   4.178   1.184  0.0042  0.3407 -0.5004
  235PVA   H10139949   2.011   4.094   1.114 -4.8284 -0.7142 -0.1386
  235PVA   H10239950   2.039   4.130   1.276 -3.7460 -5.2144 -1.4806
  236PVA     C139951   3.479   2.560   3.938  0.5098 -0.2325 -0.0944
  236PVA     H139952   3.473   2.451   3.927 -3.6455  0.0815 -3.0404
  236PVA     H239953   3.570   2.578   3.998  0.9622  2.4170 -1.4306
  236PVA     C239954   3.523   2.622   3.806 -0.3541  1.0028 -0.7576
  236PVA     H339955   3.480   2.554   3.732  2.8068 -2.6932  0.4617
  236PVA     O139956   3.661   2.611   3.779  0.1458  0.8474 -0.0773
  236PVA     H439957   3.709   2.628   3.862  0.7348  1.0391 -0.4542
  236PVA     C339958   3.470   2.747   3.756 -1.7992  0.5275  0.2417
  236PVA     H539959   3.507   2.837   3.807 -1.9627  1.4713 -1.2427
  236PVA     H639960   3.361   2.755   3.755 -1.7514  1.3872  0.4375
  236PVA     C439961   3.500   2.784   3.605  0.3616  0.6463 -0.2791
  236PVA     H739962   3.604   2.817   3.593  0.6117  0.3386  0.9066
  236PVA     H839963   3.490   2.688   3.552 -1.6428  0.6636 -0.0133
  236PVA     C539964   3.396   2.874   3.553  0.1201 -0.4565 -0.3241
  236PVA     H939965   3.307   2.810   3.553  2.5196 -4.1285 -1.6587
  236PVA     O239966   3.374   2.989   3.622 -0.1817 -0.2071  0.4240
  236PVA    H1039967   3.434   3.057   3.586 -0.2663 -0.4061 -0.0980
  236PVA     C639968   3.430   2.910   3.407  1.2964 -0.0004  0.4284
  236PVA    H1139969   3.437   2.822   3.341  0.7478  0.3161 -0.0683
  236PVA    H1239970   3.536   2.936   3.414  1.7111 -1.7859  1.2348
  236PVA     C739971   3.337   3.014   3.340  0.7505 -0.7639  0.5801
  236PVA    H1339972   3.335   3.114   3.385  0.2247 -1.3998  2.0281
  236PVA    H1439973   3.237   2.974   3.360  2.3934 -3.5989  4.3354
  236PVA     C839974   3.336   3.014   3.182  0.8762 -0.9308 -0.2672
  236PVA    H1539975   3.273   2.930   3.150 -0.6893  1.2702 -3.4487
  236PVA     O339976   3.468   3.006   3.131  0.4222  0.0403  0.6529
  236PVA    H1639977   3.526   2.970   3.201  0.7839 -0.8112 -0.0596
  236PVA     C939978   3.246   3.128   3.127  0.5076 -0.1569  0.9682
  236PVA    H1739979   3.297   3.221   3.157 -0.6266 -0.2816  3.5797
  236PVA    H1839980   3.144   3.116   3.164  1.4563 -1.5508  3.3260
  236PVA    C1039981   3.217   3.099   2.971 -0.1697  0.8468 -1.1958
  236PVA    H1939982   3.320   3.096   2.934  0.9625 -3.2632  1.6329
  236PVA    H2039983   3.170   3.002   2.951 -3.0181  1.1123  2.8388
  236PVA    C1139984   3.143   3.218   2.906  0.6447 -0.4351  0.0862
  236PVA    H2139985   3.040   3.215   2.943  0.9847  0.7070  1.1750
  236PVA     O439986   3.215   3.339   2.928 -0.5281 -0.2530  0.3372
  236PVA    H2239987   3.299   3.323   2.881  0.1212 -2.2493  2.0393
  236PVA    C1239988   3.120   3.196   2.751 -0.4426 -0.2808  1.3401
  236PVA    H2339989   3.173   3.267   2.686 -1.9525  0.0951  0.4715
  236PVA    H2439990   3.153   3.096   2.721  0.6110  1.1058 -2.7368
  236PVA    C1339991   2.970   3.186   2.719  1.2045  0.5981 -0.0449
  236PVA    H2539992   2.920   3.281   2.743  2.0444  0.9629  0.2858
  236PVA    H2639993   2.939   3.111   2.793  5.2454  1.5010  2.9281
  236PVA    C1439994   2.936   3.124   2.581 -0.0341 -0.5719 -0.7697
  236PVA    H2739995   3.021   3.070   2.537  0.7266  1.0329 -1.3813
  236PVA     O539996   2.823   3.042   2.614  0.6817  0.3647 -0.2424
  236PVA    H2839997   2.866   2.955   2.602 -2.4318 -1.8091  2.4787
  236PVA    C1539998   2.891   3.225   2.465 -0.1493  0.3385  0.3848
  236PVA    H2939999   2.806   3.279   2.507  0.9470  0.8805  2.0087
  236PVA    H3040000   2.966   3.300   2.437 -0.5914  0.5912 -0.1407
  236PVA    C1640001   2.830   3.163   2.334  1.0095 -0.4961 -0.2358
  236PVA    H3140002   2.855   3.056   2.334 -1.0666 -1.0504 -2.6361
  236PVA    H3240003   2.721   3.171   2.344  0.3532 -4.4252 -2.2494
  236PVA    C1740004   2.884   3.218   2.205  0.7364 -0.8562  0.7345
  236PVA    H3340005   2.994   3.214   2.208  1.1554  2.6689 -2.6613
  236PVA     O640006   2.843   3.349   2.199  0.4796  0.1965  0.3601
  236PVA    H3440007   2.746   3.347   2.206  0.3580 -0.1221 -1.0636
  236PVA    C1840008   2.821   3.139   2.091 -0.1448 -1.1462  0.8548
  236PVA    H3540009   2.832   3.030   2.099  1.4547 -0.9998  1.0169
  236PVA    H3640010   2.714   3.164   2.081 -0.2462 -1.8970 -0.0238
  236PVA    C1940011   2.871   3.186   1.947 -0.4002  0.7667  0.1332
  236PVA    H3740012   2.809   3.174   1.857 -0.0921  1.0306 -0.1233
  236PVA    H3840013   2.889   3.294   1.955  2.3089  0.2302  4.8078
  236PVA    C2040014   3.009   3.132   1.927  0.1091  0.1840  0.2104
  236PVA    H3940015   3.084   3.184   1.988 -0.2172  2.8138 -1.5002
  236PVA     O740016   3.009   2.995   1.954  0.2940 -0.7134 -0.0552
  236PVA    H4040017   3.094   2.966   1.992  1.2705 -0.2129 -1.7518
  236PVA    C2140018   3.063   3.139   1.773  0.1194  1.3203 -2.0219
  236PVA    H4140019   3.046   3.243   1.745  1.1036  1.5816 -1.6865
  236PVA    H4240020   2.986   3.079   1.723  2.0196 -2.2503 -1.0133
  236PVA    C2240021   3.201   3.092   1.746  0.2862 -1.0074  0.5152
  236PVA    H4340022   3.218   2.984   1.754 -3.7222 -1.7617  0.9213
  236PVA    H4440023   3.267   3.138   1.821 -1.7745 -2.0324  3.1284
  236PVA    C2340024   3.260   3.145   1.607  0.2612  0.1952 -1.1408
  236PVA    H4540025   3.359   3.104   1.586  0.0163 -0.6887 -0.6100
  236PVA     O840026   3.266   3.286   1.587  1.1481 -0.2412 -0.2546
  236PVA    H4640027   3.228   3.330   1.666  0.3871 -0.8862 -0.2537
  236PVA    C2440028   3.177   3.099   1.493  0.6514 -0.2935 -0.6577
  236PVA    H4740029   3.178   2.991   1.507  1.8833  0.0574  3.1685
  236PVA    H4840030   3.076   3.143   1.491 -0.2325 -2.0881  1.0733
  236PVA    C2540031   3.252   3.107   1.359  0.8492  0.2937  0.0109
  236PVA    H4940032   3.191   3.057   1.282 -0.0241 -1.0045  1.4864
  236PVA    H5040033   3.339   3.042   1.377 -1.0931 -1.8607  2.3673
  236PVA    C2640034   3.292   3.257   1.323  0.9797 -0.4868 -1.0390
  236PVA    H5140035   3.357   3.310   1.393 -1.6360 -1.9331  2.8260
  236PVA     O940036   3.364   3.250   1.197 -0.2708  0.3208 -0.0056
  236PVA    H5240037   3.314   3.305   1.135  2.5087 -2.9332 -6.0595
  236PVA    C2740038   3.175   3.348   1.291 -0.3985 -0.1170  0.0189
  236PVA    H5340039   3.225   3.436   1.249  2.8412 -1.6354  0.3907
  236PVA    H5440040   3.135   3.392   1.383 -1.1171 -0.1954 -0.2508
  236PVA    C2840041   3.064   3.307   1.182 -0.3062 -0.5507 -0.9734
  236PVA    H5540042   3.099   3.269   1.086 -0.8612  2.8547 -2.6594
  236PVA    H5640043   3.002   3.232   1.231  0.0909 -0.2169  0.0787
  236PVA    C2940044   2.982   3.433   1.155  0.3944  0.0676 -0.1363
  236PVA    H5740045   2.970   3.489   1.249  1.4370  0.9504 -0.5063
  236PVA    O1040046   3.069   3.506   1.061  0.1818  0.1938 -0.0617
  236PVA    H5840047   3.008   3.510   0.986  0.7717  2.0413 -0.4830
  236PVA    C3040048   2.837   3.403   1.106 -0.5416  1.4174 -0.2941
  236PVA    H5940049   2.830   3.475   1.023 -2.0230  0.4519 -1.0428
  236PVA    H6040050   2.836   3.304   1.060  4.3298 -0.4473  2.8656
  236PVA    C3140051   2.735   3.446   1.218 -1.5536  1.1390  0.7359
  236PVA    H6140052   2.762   3.552   1.213  1.0601  0.5184  0.5784
  236PVA    H6240053   2.766   3.394   1.310 -5.1399 -2.8173  0.0125
  236PVA    C3240054   2.589   3.406   1.186  1.1798 -0.3945  0.1768
  236PVA    H6340055   2.575   3.301   1.216  2.5120  0.1685  3.1368
  236PVA    O1140056   2.562   3.432   1.041 -0.1720 -1.0078  0.7937
  236PVA    H6440057   2.499   3.360   1.023 -0.1969 -0.3377 -2.5069
  236PVA    C3340058   2.498   3.485   1.278  0.4314 -1.0000  0.0006
  236PVA    H6540059   2.448   3.573   1.234 -0.5933 -1.5011  0.1563
  236PVA    H6640060   2.539   3.526   1.371 -1.8379 -2.7732  1.8965
  236PVA    C3440061   2.368   3.413   1.319 -0.2019 -0.2186 -0.5058
  236PVA    H6740062   2.303   3.433   1.233 -0.2047  1.9137 -0.0648
  236PVA    H6840063   2.377   3.306   1.340 -0.8818 -0.0922  0.4839
  236PVA    C3540064   2.288   3.478   1.438  0.0543  0.1075 -0.6901
  236PVA    H6940065   2.186   3.439   1.442  0.5377 -1.0913  1.8035
  236PVA    O1240066   2.357   3.447   1.563  1.2062 -0.4804  0.0674
  236PVA    H7040067   2.296   3.496   1.622 -4.2172 -1.8404 -3.6684
  236PVA    C3640068   2.262   3.628   1.419  0.1344  0.6933 -0.2047
  236PVA    H7140069   2.367   3.661   1.419  1.2469 -2.2476  2.8896
  236PVA    H7240070   2.233   3.652   1.316 -2.2112 -0.0611  0.2372
  236PVA    C3740071   2.162   3.685   1.523  0.2557 -0.4060 -0.5001
  236PVA    H7340072   2.063   3.637   1.520 -0.6106  1.2305  0.4298
  236PVA    H7440073   2.133   3.782   1.481 -2.5878 -2.3804 -3.6649
  236PVA    C3840074   2.211   3.704   1.674  0.6779  0.4537  0.3617
  236PVA    H7540075   2.307   3.753   1.690 -0.3956  2.2362  1.7628
  236PVA    O1340076   2.189   3.574   1.745 -0.8234 -0.4873  0.0300
  236PVA    H7640077   2.185   3.607   1.837 -0.2552  0.3024 -0.2177
  236PVA    C3940078   2.114   3.819   1.738  0.2011  0.1334  0.0853
  236PVA    H7740079   2.009   3.796   1.717  0.4551 -1.8255  0.8159
  236PVA    H7840080   2.137   3.912   1.683  0.0852  1.8321  2.7349
  236PVA    C4040081   2.130   3.858   1.885  0.3664  0.0414 -0.0806
  236PVA    H7940082   2.084   3.778   1.944 -0.3941 -2.1790 -3.3930
  236PVA    H8040083   2.238   3.858   1.905  0.0458  2.4058  2.1746
  236PVA    C4140084   2.083   4.008   1.934 -0.8481  0.3784  0.4508
  236PVA    H8140085   2.011   4.049   1.862 -0.7352 -1.8837 -1.0633
  236PVA    O1440086   2.011   4.004   2.057  0.4647  0.5872  0.3080
  236PVA    H8240087   1.928   4.055   2.053 -0.5862 -0.8533  2.4010
  236PVA    C4240088   2.198   4.113   1.951 -0.1648  0.5086  0.5559
  236PVA    H8340089   2.256   4.107   2.043 -0.7564  2.9539  1.1553
  236PVA    H8440090   2.267   4.093   1.868 -3.7420 -5.4579 -1.6222
  236PVA    C4340091   2.139   4.256   1.966 -0.4947  0.2558  0.5947
  236PVA    H8540092   2.113   4.280   2.070  2.4525  1.9867  1.0561
  236PVA    H8640093   2.057   4.263   1.895  0.8602 -0.0906 -1.0758
  236PVA    C4440094   2.238   4.371   1.939 -0.5217  0.3157 -0.7588
  236PVA    H8740095   2.285   4.364   1.840 -1.5003  4.0052 -1.6422
  236PVA    O1540096   2.330   4.370   2.042 -0.6914  0.0183  0.2292
  236PVA    H8840097   2.415   4.397   2.005 -0.7050  1.9157  1.4353
  236PVA    C4540098   2.160   4.502   1.947  0.3545 -1.4137  1.1194
  236PVA    H8940099   2.115   4.535   2.041 -1.6300 -1.4916  0.2433
  236PVA    H9040100   2.069   4.489   1.887 -1.2731 -0.3959  3.2593
  236PVA    C4640101   2.236   4.633   1.899  0.8881 -0.8339 -0.2984
  236PVA    H9140102   2.186   4.721   1.940  1.5598 -1.5095  2.2108
  236PVA    H9240103   2.319   4.649   1.969  0.9080 -5.3392  1.0344
  236PVA    C4740104   2.278   4.641   1.746  0.3349  0.0152 -0.0748
  236PVA    H9340105   2.341   4.556   1.717  0.0161  1.2882 -5.5529
  236PVA    O1640106   2.360   4.754   1.721 -0.1764 -0.3834 -0.1745
  236PVA    H9440107   2.342   4.771   1.627 -0.4404 -0.8814 -0.2206
  236PVA    C4840108   2.167   4.604   1.641 -1.1795  0.0138 -0.1472
  236PVA    H9540109   2.142   4.497   1.646 -0.5797 -0.2177 -1.6481
  236PVA    H9640110   2.063   4.632   1.660 -1.9580 -1.8132 -1.3790
  236PVA    C4940111   2.186   4.628   1.495 -0.7256  0.3930 -0.0221
  236PVA    H9740112   2.169   4.735   1.479  1.2516  0.4304 -2.4730
  236PVA    H9840113   2.104   4.578   1.442  1.4499  0.0440 -3.3469
  236PVA    C5040114   2.325   4.588   1.427 -0.0418 -0.3112 -0.9163
  236PVA    H9940115   2.357   4.499   1.483 -1.2927  0.3017  0.8737
  236PVA    O1740116   2.399   4.710   1.453  1.0032 -0.2161 -0.0087
  236PVA   H10040117   2.464   4.717   1.382  0.7266 -3.0014 -0.6863
  236PVA    C5140118   2.330   4.575   1.274  0.0311  0.4509  0.8172
  236PVA   H10140119   2.256   4.648   1.240 -1.6880 -0.7556  1.8399
  236PVA   H10240120   2.426   4.598   1.226 -1.5288 -1.1325 -3.5834
  237PVA     C140121   3.169   2.593   4.344 -0.9384  1.5544  0.8889
  237PVA     H140122   3.099   2.669   4.380  0.4533  2.1536  2.5253
  237PVA     H240123   3.246   2.577   4.422 -4.6993  1.3933  4.9955
  237PVA     C240124   3.090   2.457   4.329 -0.2903 -0.5132  0.3957
  237PVA     H340125   3.007   2.501   4.272  0.6979  0.0490 -0.6435
  237PVA     O140126   3.177   2.366   4.263 -0.2846 -0.6896 -0.0322
  237PVA     H440127   3.267   2.373   4.298  0.0615 -3.7897 -0.0210
  237PVA     C340128   3.041   2.409   4.463  0.1280  0.6045  0.2269
  237PVA     H540129   3.017   2.483   4.541  0.8542 -0.4562  1.5087
  237PVA     H640130   3.127   2.365   4.515 -0.1205  1.4278  1.3774
  237PVA     C440131   2.919   2.320   4.465  0.2521  0.5026 -0.0815
  237PVA     H740132   2.878   2.321   4.566  0.4520 -0.7141  0.0255
  237PVA     H840133   2.834   2.356   4.405 -1.2356  0.4246  1.8841
  237PVA     C540134   2.937   2.169   4.423 -0.5081  0.2784  0.4022
  237PVA     H940135   3.027   2.130   4.472 -2.4960 -1.8305  2.6232
  237PVA     O240136   2.953   2.165   4.282 -0.1305  0.8500 -0.0931
  237PVA    H1040137   3.046   2.184   4.260  0.1046 -1.3804 -1.2887
  237PVA     C640138   2.826   2.064   4.478 -0.4552 -0.4435  0.3462
  237PVA    H1140139   2.848   2.037   4.582 -1.1955 -1.5338  0.2360
  237PVA    H1240140   2.731   2.118   4.465  0.7409  1.3361 -1.7074
  237PVA     C740141   2.812   1.937   4.387  0.2064  0.3732 -0.8043
  237PVA    H1340142   2.776   1.983   4.293  0.1958  3.5830  0.6352
  237PVA    H1440143   2.910   1.889   4.374  1.3973  2.1108  1.2103
  237PVA     C840144   2.713   1.831   4.450 -0.5068 -0.0041  0.3554
  237PVA    H1540145   2.775   1.769   4.516  1.4282  0.9367 -0.4832
  237PVA     O340146   2.615   1.882   4.534  1.0085  0.5880 -0.5015
  237PVA    H1640147   2.595   1.810   4.596  1.2611  1.6609  0.8671
  237PVA     C940148   2.659   1.728   4.344 -0.4157 -0.0778 -0.8325
  237PVA    H1740149   2.713   1.633   4.355 -0.8133 -0.7853 -4.0236
  237PVA    H1840150   2.700   1.768   4.250 -3.5121  0.4513 -2.0833
  237PVA    C1040151   2.504   1.696   4.352 -1.5819  0.4209  1.0765
  237PVA    H1940152   2.456   1.720   4.447  0.0427 -2.1343  2.6732
  237PVA    H2040153   2.474   1.771   4.279  0.2362  0.0171 -0.1669
  237PVA    C1140154   2.447   1.554   4.302 -0.0258 -0.3248 -0.4119
  237PVA    H2140155   2.502   1.477   4.358  0.5922  1.0980  1.0114
  237PVA     O440156   2.471   1.547   4.161  0.1990  1.3352 -0.8970
  237PVA    H2240157   2.550   1.491   4.147 -1.8054 -2.6657  1.9371
  237PVA    C1240158   2.290   1.528   4.337 -0.2241 -0.6138  0.3839
  237PVA    H2340159   2.220   1.603   4.298 -0.3243  0.6916  2.8909
  237PVA    H2440160   2.250   1.440   4.284 -1.0124 -0.3905  0.6038
  237PVA    C1340161   2.257   1.507   4.491  0.5550 -0.1497  0.9836
  237PVA    H2540162   2.234   1.607   4.527  0.5106  1.1707 -2.3250
  237PVA    H2640163   2.344   1.457   4.534 -1.6045 -1.3028  4.3840
  237PVA    C1440164   2.134   1.420   4.529 -0.0552  0.4179  1.0329
  237PVA    H2740165   2.045   1.465   4.484  0.9729  0.0000 -1.5926
  237PVA     O540166   2.148   1.298   4.453 -1.1488 -0.8616 -0.3695
  237PVA    H2840167   2.163   1.225   4.516 -0.8516 -0.5694 -0.0984
  237PVA    C1540168   2.112   1.386   4.687 -0.0418  1.0165  0.4570
  237PVA    H2940169   2.205   1.374   4.745  0.9491 -0.0000 -1.2466
  237PVA    H3040170   2.058   1.291   4.698 -0.8438  0.9923 -2.8696
  237PVA    C1640171   2.018   1.490   4.759  0.0845  0.9389  0.0316
  237PVA    H3140172   2.085   1.531   4.836  2.3223 -0.4308 -1.0565
  237PVA    H3240173   1.984   1.578   4.703 -0.1431  1.5435  1.1078
  237PVA    C1740174   1.890   1.429   4.824 -0.0414 -0.1952  0.2856
  237PVA    H3340175   1.841   1.386   4.735 -1.5718  1.4235  0.2983
  237PVA     O640176   1.921   1.317   4.911 -0.0386  0.0985  0.8542
  237PVA    H3440177   1.883   1.325   5.000 -0.3255  3.4738  0.5708
  237PVA    C1840178   1.789   1.527   4.894  1.0548  0.1792 -1.1481
  237PVA    H3540179   1.780   1.624   4.842 -2.6148  0.4436 -0.3438
  237PVA    H3640180   1.819   1.545   4.997  1.5201  5.5733 -1.9353
  237PVA    C1940181   1.642   1.469   4.891 -0.4697  0.3226 -0.4222
  237PVA    H3740182   1.592   1.461   4.793  1.4310 -0.6015 -1.3569
  237PVA    H3840183   1.643   1.363   4.918 -3.3266 -0.5135 -2.9095
  237PVA    C2040184   1.528   1.535   4.978  0.0463 -1.0294 -0.0745
  237PVA    H3940185   1.538   1.515   5.086  1.0882 -1.5007 -0.2430
  237PVA     O740186   1.506   1.672   4.974 -0.6930  0.0819 -0.5937
  237PVA    H4040187   1.567   1.716   5.036 -1.8220 -0.9490  1.3675
  237PVA    C2140188   1.388   1.472   4.946  0.6261  0.2107  0.4088
  237PVA    H4140189   1.383   1.454   4.838 -0.3880  0.8318  0.3402
  237PVA    H4240190   1.400   1.374   4.993 -2.0777  0.0851  0.9903
  237PVA    C2240191   1.268   1.522   5.026 -0.3488  0.0004  1.0263
  237PVA    H4340192   1.236   1.591   4.946  3.7252  1.4874  0.4287
  237PVA    H4440193   1.296   1.582   5.113 -1.6006  1.3015  0.5732
  237PVA    C2340194   1.160   1.410   5.071 -1.2670 -0.5233  0.0359
  237PVA    H4540195   1.148   1.336   4.992 -0.7918 -1.5433  0.8983
  237PVA     O840196   1.227   1.352   5.186  0.8162  0.0231 -1.0491
  237PVA    H4640197   1.212   1.256   5.181 -2.5926  0.4619 -1.9691
  237PVA    C2440198   1.014   1.455   5.106  1.0195 -0.1678 -0.1589
  237PVA    H4740199   1.012   1.476   5.213 -1.1386  2.4915 -0.6117
  237PVA    H4840200   0.988   1.553   5.066  1.4147 -1.7665 -5.0160
  237PVA    C2540201   0.898   1.344   5.097  0.9364 -0.8547  0.0973
  237PVA    H4940202   0.909   1.273   5.179 -1.8264 -1.9900 -0.4167
  237PVA    H5040203   0.905   1.271   5.016  0.4141 -3.0403  1.9320
  237PVA    C2640204   0.744   1.402   5.090 -0.5411  0.4785 -0.6120
  237PVA    H5140205   0.750   1.441   4.988  1.6140  1.3034 -0.2205
  237PVA     O940206   0.726   1.505   5.189 -0.0256  0.1377 -0.6629
  237PVA    H5240207   0.642   1.548   5.164 -0.0726 -0.3287 -1.3429
  237PVA    C2740208   0.631   1.300   5.111 -0.0771  0.9628  0.3369
  237PVA    H5340209   0.626   1.272   5.217 -2.6968 -3.8110 -0.7650
  237PVA    H5440210   0.646   1.212   5.047 -3.3673 -0.4836  1.3259
  237PVA    C2840211   0.479   1.342   5.085  0.3936  0.5559  0.8118
  237PVA    H5540212   0.448   1.405   5.169 -1.8664  0.2876  0.2472
  237PVA    H5640213   0.481   1.389   4.986  2.5031 -0.7062  0.1829
  237PVA    C2940214   0.376   1.227   5.100 -0.9192  0.8111  1.3533
  237PVA    H5740215   0.402   1.167   5.188 -3.0029  1.0575  2.1910
  237PVA    O1040216   0.373   1.136   4.998 -0.3115  0.1108 -0.4160
  237PVA    H5840217   0.430   1.166   4.925 -1.7883  1.6648 -1.0258
  237PVA    C3040218   0.223   1.274   5.126 -0.0027  0.3794 -0.7896
  237PVA    H5940219   0.166   1.182   5.104  0.2027  0.0695 -0.0505
  237PVA    H6040220   0.219   1.316   5.227  2.9510  0.0470 -0.4692
  237PVA    C3140221   0.176   1.388   5.032  0.7279  1.7483 -0.0772
  237PVA    H6140222   0.231   1.479   5.061  0.9951  1.5269  0.1093
  237PVA    H6240223   0.201   1.362   4.929  1.7287  0.1520  0.5301
  237PVA    C3240224   0.023   1.430   5.049 -0.2302 -0.8672 -0.2226
  237PVA    H6340225   7.735   1.335   5.034 -3.3435  0.9683 -1.7423
  237PVA    O1140226   0.015   1.478   5.182  0.4673 -0.4420  0.0609
  237PVA    H6440227   0.034   1.571   5.159 -2.2716  0.0116 -0.7545
  237PVA    C3340228   7.738   1.528   4.935  0.9117 -0.0583 -0.2856
  237PVA    H6540229   7.633   1.504   4.914  1.6829 -1.3667 -3.1863
  237PVA    H6640230   0.026   1.502   4.842 -3.2678 -0.6897 -2.7397
  237PVA    C3440231   7.738   1.686   4.959 -0.2124  0.9568 -0.7480
  237PVA    H6740232   0.058   1.710   5.025 -0.0652 -1.8722  0.2596
  237PVA    H6840233   7.647   1.715   5.012  0.6056  4.6246 -1.1099
  237PVA    C3540234   7.743   1.778   4.843 -0.2101  0.7005  0.0462
  237PVA    H6940235   0.068   1.768   4.782  2.5872  0.8431  3.8046
  237PVA    O1240236   7.636   1.761   4.751 -0.1709 -0.3904  0.3145
  237PVA    H7040237   7.643   1.678   4.701 -1.1817  1.2182 -2.7082
  237PVA    C3640238   7.748   1.922   4.889  0.0253  0.3129 -0.5769
  237PVA    H7140239   7.643   1.948   4.910  0.2323 -0.0473  1.0138
  237PVA    H7240240   0.051   1.926   4.974  1.0242 -0.5520 -1.3080
  237PVA    C3740241   0.043   2.011   4.784 -0.0262 -0.2045  1.0040
  237PVA    H7340242   7.765   2.110   4.801 -0.9791 -0.6651  1.3335
  237PVA    H7440243   0.015   1.987   4.680  1.8694  0.9679  0.1613
  237PVA    C3840244   0.195   2.018   4.799  0.6541 -0.8238 -0.0575
  237PVA    H7540245   0.215   1.913   4.822  1.6278 -0.9383 -1.3334
  237PVA    O1340246   0.248   2.049   4.673  0.3582  0.6654 -0.0008
  237PVA    H7640247   0.318   2.110   4.701  1.3897 -0.4858  0.0174
  237PVA    C3940248   0.251   2.125   4.903  1.0478  0.0608  0.4227
  237PVA    H7740249   0.202   2.130   5.001  1.6876 -2.3647  0.9452
  237PVA    H7840250   0.237   2.223   4.855 -0.0290 -1.1683 -1.9822
  237PVA    C4040251   0.401   2.098   4.938  0.3086  0.1169 -0.2942
  237PVA    H7940252   0.414   1.990   4.925  1.4230  0.4724 -2.6255
  237PVA    H8040253   0.461   2.123   4.850  0.1860  1.7042  0.0399
  237PVA    C4140254   0.462   2.161   5.069 -0.8578  0.0158 -0.5693
  237PVA    H8140255   0.482   2.268   5.053 -0.9375  0.5580  2.4540
  237PVA    O1440256   0.358   2.157   5.172 -0.3584 -0.5129  0.2516
  237PVA    H8240257   0.401   2.146   5.258 -0.5778 -4.5949  0.0084
  237PVA    C4240258   0.589   2.083   5.120  1.1308  0.5039 -0.1117
  237PVA    H8340259   0.575   1.982   5.078  1.1538  0.9992 -1.3337
  237PVA    H8440260   0.676   2.127   5.070  1.4952 -1.2319 -1.0866
  237PVA    C4340261   0.606   2.078   5.277 -0.2256 -0.2064 -0.2571
  237PVA    H8540262   0.561   2.175   5.300  1.5843  0.9605 -1.4334
  237PVA    H8640263   0.710   2.106   5.294 -0.6775  0.4411  1.6338
  237PVA    C4440264   0.560   1.950   5.360 -0.3533 -0.2301  0.9711
  237PVA    H8740265   0.455   1.940   5.328  0.4387  2.0596 -2.9326
  237PVA    O1540266   0.636   1.831   5.334 -0.2434  0.0691  0.7099
  237PVA    H8840267   0.725   1.847   5.369  1.2851 -3.8736 -0.8283
  237PVA    C4540268   0.550   1.978   5.508 -0.3569  0.1544 -0.0541
  237PVA    H8940269   0.490   2.068   5.524 -0.5613  0.8991 -3.9112
  237PVA    H9040270   0.651   1.994   5.549 -0.1755 -0.8998 -0.0771
  237PVA    C4640271   0.483   1.854   5.580  0.2696 -0.8807  1.5123
  237PVA    H9140272   0.403   1.806   5.521 -0.6392  0.0124  1.9779
  237PVA    H9240273   0.557   1.773   5.572 -0.0305 -0.9958 -0.9056
  237PVA    C4740274   0.436   1.883   5.728 -0.6309 -0.3766 -0.7363
  237PVA    H9340275   0.519   1.904   5.797  0.8124 -2.0750 -1.8643
  237PVA    O1640276   0.345   1.991   5.708 -0.4429 -0.0037 -0.1657
  237PVA    H9440277   0.322   1.973   5.615  0.3084  0.3367 -0.4235
  237PVA    C4840278   0.363   1.766   5.804 -0.1989 -0.2826 -0.4941
  237PVA    H9540279   0.348   1.681   5.736  7.1294  0.0652 -3.4586
  237PVA    H9640280   0.418   1.731   5.892 -4.3183 -2.4205  1.4998
  237PVA    C4940281   0.236   1.795   5.886  1.2634  0.3671  0.6962
  237PVA    H9740282   0.153   1.822   5.819  1.0364 -0.8393  0.4625
  237PVA    H9840283   0.276   1.865   5.960  1.2411  3.0858 -1.6767
  237PVA    C5040284   0.186   1.678   5.980  0.8300  0.9334  0.1614
  237PVA    H9940285   0.170   1.590   5.917  3.0923  1.8689 -1.8771
  237PVA    O1740286   0.294   1.633   6.053  0.3995  0.2819  0.2574
  237PVA   H10040287   0.331   1.703   6.110 -1.2442  2.3536 -1.0705
  237PVA    C5140288   0.066   1.712   6.068 -0.1180  0.4295  0.3259
  237PVA   H10140289   0.041   1.817   6.050  3.0584  1.1813 -0.3902
  237PVA   H10240290   0.115   1.721   6.166 -0.5965 -3.6045  1.1038
  238PVA     C140291   2.103   4.181   0.598  0.0652 -0.4086  0.0579
  238PVA     H140292   2.070   4.260   0.529 -2.1662 -0.5664  0.8567
  238PVA     H240293   2.078   4.082   0.559 -3.8315  1.2807 -2.4065
  238PVA     C240294   2.039   4.200   0.736  0.5768 -0.7225  0.6417
  238PVA     H340295   2.053   4.304   0.768  0.2727  0.8837 -3.8038
  238PVA     O140296   2.104   4.108   0.823 -0.8789 -0.0672 -0.1792
  238PVA     H440297   2.175   4.148   0.876  0.6270 -1.8828 -0.7004
  238PVA     C340298   1.885   4.173   0.732 -0.3916 -0.0653 -1.1543
  238PVA     H540299   1.866   4.066   0.747  0.1953  0.1309  1.3782
  238PVA     H640300   1.844   4.192   0.632  3.9091 -0.4408 -3.1901
  238PVA     C440301   1.802   4.232   0.841 -0.1167  0.4795 -0.6053
  238PVA     H740302   1.875   4.233   0.924  1.4488 -2.0029 -1.8302
  238PVA     H840303   1.785   4.337   0.815  5.1017  1.7674  0.1058
  238PVA     C540304   1.680   4.154   0.889 -0.5422  0.4819 -0.7902
  238PVA     H940305   1.719   4.068   0.943 -1.2789  1.1100  0.8194
  238PVA     O240306   1.619   4.221   0.993 -0.2096 -0.5224 -0.1978
  238PVA    H1040307   1.532   4.239   0.955 -0.8896 -1.6890  0.7322
  238PVA     C640308   1.582   4.104   0.775 -0.4179  0.5895 -0.7569
  238PVA    H1140309   1.542   4.194   0.727  1.5191  0.9430 -1.8181
  238PVA    H1240310   1.639   4.049   0.698  1.0435  0.6527  0.2360
  238PVA     C740311   1.457   4.022   0.825 -0.1353  0.7782  0.1055
  238PVA    H1340312   1.389   4.098   0.865 -1.3441 -0.9106  1.4118
  238PVA    H1440313   1.469   3.954   0.910 -3.0712  1.7645  1.4627
  238PVA     C840314   1.381   3.931   0.718 -1.4920  0.7465 -0.7387
  238PVA    H1540315   1.372   4.002   0.634  3.9902  0.9552 -1.5371
  238PVA     O340316   1.452   3.818   0.662 -0.0604 -0.1806 -0.5414
  238PVA    H1640317   1.533   3.845   0.615  0.2507  0.1327  0.1546
  238PVA     C940318   1.249   3.866   0.766  1.1011  1.0442  0.9833
  238PVA    H1740319   1.177   3.936   0.811 -1.9705  0.8139 -2.9533
  238PVA    H1840320   1.269   3.783   0.834  3.5951  0.0172 -0.8622
  238PVA    C1040321   1.171   3.803   0.641 -0.6384  0.1306 -0.4622
  238PVA    H1940322   1.211   3.832   0.543  2.1213 -2.0456 -0.1019
  238PVA    H2040323   1.194   3.696   0.631  2.0078  0.6897 -0.9867
  238PVA    C1140324   1.022   3.778   0.659 -0.9634 -0.1816  0.5716
  238PVA    H2140325   0.999   3.820   0.758 -1.7888 -2.3781  1.3840
  238PVA     O440326   0.959   3.824   0.542 -0.9053 -0.2973 -0.3981
  238PVA    H2240327   0.876   3.865   0.570 -0.3842  0.1958  0.4674
  238PVA    C1240328   0.966   3.636   0.684  1.1015 -0.2000  0.6786
  238PVA    H2340329   1.009   3.561   0.616  0.1941  0.4787 -0.7157
  238PVA    H2440330   0.991   3.608   0.787  1.8446 -3.0672 -0.1831
  238PVA    C1340331   0.808   3.636   0.670 -0.0157  0.2024  0.1005
  238PVA    H2540332   0.790   3.625   0.562 -1.3993 -0.7523  0.3942
  238PVA    H2640333   0.762   3.729   0.705  0.3355  0.3392  0.1981
  238PVA    C1440334   0.723   3.519   0.712 -0.8169  0.5524  1.0658
  238PVA    H2740335   0.631   3.531   0.653  0.4338  2.8656 -0.5528
  238PVA     O540336   0.708   3.522   0.853 -0.5838  0.0518  0.0381
  238PVA    H2840337   0.637   3.588   0.857  1.7526  2.7572  0.2576
  238PVA    C1540338   0.764   3.373   0.664  1.2937 -0.5783 -0.1958
  238PVA    H2940339   0.870   3.351   0.681  1.2734 -0.4860  0.0595
  238PVA    H3040340   0.765   3.364   0.555  1.8454  0.4115 -0.2774
  238PVA    C1640341   0.685   3.265   0.727 -0.1341  0.3291 -0.0060
  238PVA    H3140342   0.752   3.235   0.809 -0.4117 -0.0260  0.0950
  238PVA    H3240343   0.593   3.310   0.766 -0.6741  0.1946 -1.0914
  238PVA    C1740344   0.655   3.138   0.640  0.8560  0.4576 -0.7988
  238PVA    H3340345   0.600   3.182   0.556  0.3466  0.4334 -0.4830
  238PVA     O640346   0.769   3.067   0.606  0.4105 -0.1548  0.3290
  238PVA    H3440347   0.786   3.006   0.680 -1.0767 -0.2628  0.6290
  238PVA    C1840348   0.547   3.044   0.705  0.2440 -0.1509 -0.2248
  238PVA    H3540349   0.592   2.946   0.725 -1.2485 -1.5241 -3.0208
  238PVA    H3640350   0.497   3.086   0.794 -3.1907  0.8440 -2.4399
  238PVA    C1940351   0.435   3.009   0.604  0.2449  0.3921  1.6724
  238PVA    H3740352   0.470   3.008   0.500 -0.4646 -3.5732  1.2965
  238PVA    H3840353   0.368   3.095   0.607  2.5396  2.2432  2.7743
  238PVA    C2040354   0.344   2.883   0.626 -0.9192  0.3562  0.5967
  238PVA    H3940355   0.410   2.796   0.617  0.6265  1.5649 -0.1309
  238PVA     O740356   0.283   2.876   0.765 -0.6579 -0.4532  0.2242
  238PVA    H4040357   0.355   2.866   0.830 -2.0671 -4.7584  1.4734
  238PVA    C2140358   0.245   2.884   0.493 -0.3882 -0.9254  0.2541
  238PVA    H4140359   0.292   2.951   0.420 -0.0373 -2.3924 -0.9041
  238PVA    H4240360   0.145   2.925   0.514 -1.6125 -1.3097 -3.8779
  238PVA    C2240361   0.200   2.749   0.432 -0.4481  0.2672  1.5150
  238PVA    H4340362   0.273   2.668   0.438 -1.3677 -0.5518  1.9016
  238PVA    H4440363   0.116   2.698   0.482  0.1483 -2.9377 -0.4700
  238PVA    C2340364   0.175   2.743   0.276  1.5775 -0.0272 -1.2010
  238PVA    H4540365   0.149   2.846   0.250  2.7859  0.5147 -0.3419
  238PVA     O840366   0.293   2.723   0.207  0.6782 -0.0203 -0.6925
  238PVA    H4640367   0.346   2.649   0.240 -0.5339 -1.4062 -1.7599
  238PVA    C2440368   0.073   2.631   0.240  0.2034  0.0520  0.3386
  238PVA    H4740369   0.111   2.531   0.265 -0.1024 -0.4041 -0.9057
  238PVA    H4840370   7.746   2.636   0.298  0.5790 -0.1295  0.9644
  238PVA    C2540371   0.030   2.652   0.091  1.0518  0.6099 -0.3017
  238PVA    H4940372   0.039   2.760   0.072 -0.7334  1.0084  0.8606
  238PVA    H5040373   0.105   2.592   0.037  2.6932  1.9093  0.4518
  238PVA    C2640374   7.655   2.597   0.057 -0.8741 -1.6517  0.2802
  238PVA    H5140375   7.590   2.679   0.091  1.7935 -0.3402  2.5582
  238PVA     O940376   7.614   2.486   0.125 -0.4288  0.3226 -0.8134
  238PVA    H5240377   7.537   2.508   0.181 -1.8433 -1.3907 -1.9637
  238PVA    C2740378   7.634   2.583   7.998  0.2803 -0.3486 -0.3717
  238PVA    H5340379   7.662   2.480   7.975  3.2766  0.3927 -0.5555
  238PVA    H5440380   7.707   2.649   7.949 -0.6908  2.4046  1.6101
  238PVA    C2840381   7.494   2.631   7.943  0.5756 -0.0044 -0.3901
  238PVA    H5540382   7.480   2.739   7.953 -0.5874 -0.2402  0.7167
  238PVA    H5640383   7.423   2.577   8.006  3.6069 -2.8947  0.9021
  238PVA    C2940384   7.473   2.584   7.800  1.0800  0.2197  0.0480
  238PVA    H5740385   7.566   2.594   7.744  1.5802  1.7167  1.1013
  238PVA    O1040386   7.453   2.437   7.788  0.4050  0.2827  1.1667
  238PVA    H5840387   7.546   2.410   7.792  0.6591  1.2355  2.3133
  238PVA    C3040388   7.374   2.670   7.715  0.3848 -0.4221  0.8098
  238PVA    H5940389   7.411   2.772   7.727  0.6284 -0.7931  3.9266
  238PVA    H6040390   7.388   2.648   7.608  3.2215  0.5446  0.8925
  238PVA    C3140391   7.224   2.657   7.741  1.6078  0.2732  0.1778
  238PVA    H6140392   7.202   2.671   7.847  0.6025  2.7580 -0.2976
  238PVA    H6240393   7.194   2.555   7.713  2.9912  0.2777 -1.4967
  238PVA    C3240394   7.143   2.748   7.642  0.7561  0.0643  0.2967
  238PVA    H6340395   7.178   2.744   7.538  1.6375  5.1594  0.1421
  238PVA    O1140396   7.154   2.893   7.661 -0.8945  0.8969 -0.5425
  238PVA    H6440397   7.149   2.948   7.581 -0.9841 -1.8003 -2.5447
  238PVA    C3340398   6.991   2.702   7.638  0.3205 -0.1815 -0.2247
  238PVA    H6540399   6.949   2.747   7.730  0.6630 -0.8387  0.2589
  238PVA    H6640400   6.976   2.593   7.639  0.1874 -0.2193 -2.2472
  238PVA    C3440401   6.909   2.765   7.509 -1.4019 -0.2172 -0.3912
  238PVA    H6740402   6.911   2.875   7.511 -0.8871 -0.2284  0.6213
  238PVA    H6840403   6.944   2.734   7.410 -1.7217  3.0773 -1.6729
  238PVA    C3540404   6.760   2.717   7.498 -0.0538 -0.3823  0.2117
  238PVA    H6940405   6.749   2.622   7.551  0.2570 -1.0269 -0.8472
  238PVA    O1240406   6.677   2.819   7.559  1.3759  0.2046 -1.2621
  238PVA    H7040407   6.696   2.831   7.654  1.4925 -0.5301 -1.1896
  238PVA    C3640408   6.694   2.702   7.346 -0.4348  0.2012 -1.2063
  238PVA    H7140409   6.642   2.798   7.334 -3.8921 -1.7966 -4.4838
  238PVA    H7240410   6.776   2.700   7.273  0.2272 -1.3011 -0.4639
  238PVA    C3740411   6.594   2.580   7.331  0.5317 -0.0365  0.3925
  238PVA    H7340412   6.522   2.581   7.414 -1.4303  0.6012 -1.2094
  238PVA    H7440413   6.660   2.492   7.336  1.8373  0.9048  0.1073
  238PVA    C3840414   6.536   2.585   7.183  0.7766  0.2882  0.1161
  238PVA    H7540415   6.609   2.619   7.109 -2.9790  1.9665 -3.1444
  238PVA    O1340416   6.417   2.667   7.184 -0.1435  0.6230 -0.3413
  238PVA    H7640417   6.461   2.746   7.221  1.1801  0.7208 -1.9734
  238PVA    C3940418   6.507   2.429   7.146 -0.5909 -1.8225 -0.1449
  238PVA    H7740419   6.402   2.406   7.169 -1.4657  0.3628 -1.5910
  238PVA    H7840420   6.590   2.378   7.197 -0.0119 -0.6941  0.0861
  238PVA    C4040421   6.516   2.405   6.994 -0.2061  0.7818 -0.1851
  238PVA    H7940422   6.449   2.474   6.941  1.7412  1.3312 -2.0812
  238PVA    H8040423   6.616   2.449   6.981 -0.4962  0.9531 -2.0281
  238PVA    C4140424   6.523   2.264   6.932 -0.2426  0.0524 -0.1755
  238PVA    H8140425   6.587   2.208   7.001 -2.4698  0.2020  2.1765
  238PVA    O1440426   6.391   2.212   6.918 -0.0433 -0.1253  0.4621
  238PVA    H8240427   6.403   2.140   6.854  2.2058 -0.1426  0.8365
  238PVA    C4240428   6.588   2.266   6.789  0.4827  0.1147 -0.1050
  238PVA    H8340429   6.522   2.320   6.720 -1.2271 -2.6498 -0.8215
  238PVA    H8440430   6.683   2.321   6.790  1.0354 -0.8207 -0.2817
  238PVA    C4340431   6.601   2.131   6.723  0.2089  0.5463 -0.5457
  238PVA    H8540432   6.504   2.102   6.680 -1.4080 -0.9167  3.6131
  238PVA    H8640433   6.624   2.053   6.796 -3.0542  1.4403  1.6359
  238PVA    C4440434   6.699   2.139   6.593  0.3388  0.3760  0.2392
  238PVA    H8740435   6.639   2.183   6.513  1.6488 -1.3220 -1.7964
  238PVA    O1540436   6.819   2.219   6.612 -0.6000  0.1760 -0.5214
  238PVA    H8840437   6.866   2.174   6.539  0.6329  0.4985  0.0426
  238PVA    C4540438   6.724   1.997   6.543 -0.2794  0.2440  1.1209
  238PVA    H8940439   6.631   1.939   6.551 -0.5083  0.3641 -0.3156
  238PVA    H9040440   6.793   1.954   6.616  0.3766  4.1460  3.1013
  238PVA    C4640441   6.772   1.961   6.401  0.6038 -0.4940 -1.0569
  238PVA    H9140442   6.770   1.853   6.381  3.9167 -0.4523 -2.1855
  238PVA    H9240443   6.713   2.013   6.325 -2.1664  0.9970  1.8676
  238PVA    C4740444   6.927   1.990   6.393 -0.1747  0.6364 -0.0305
  238PVA    H9340445   6.970   1.926   6.471 -1.6661  0.9289  1.0575
  238PVA    O1640446   6.965   2.123   6.391  0.2726  0.1142 -0.1632
  238PVA    H9440447   7.054   2.127   6.429  1.4835 -3.2165 -2.2597
  238PVA    C4840448   7.002   1.920   6.274 -0.8613  0.5837 -0.9650
  238PVA    H9540449   6.960   1.820   6.260 -0.0769  0.2627 -1.0744
  238PVA    H9640450   6.991   1.975   6.180 -3.6442 -2.2482 -2.4992
  238PVA    C4940451   7.153   1.899   6.305  0.7180  0.2762  1.5013
  238PVA    H9740452   7.155   1.857   6.406 -0.6714  3.4968  3.0156
  238PVA    H9840453   7.192   2.000   6.321  0.1074  0.2919  3.0330
  238PVA    C5040454   7.235   1.814   6.194 -1.1206 -0.9954 -0.6691
  238PVA    H9940455   7.210   1.711   6.222  0.1440 -0.3071  3.6577
  238PVA    O1740456   7.210   1.857   6.057  1.1371  0.2322 -0.2692
  238PVA   H10040457   7.247   1.945   6.042  3.9106 -1.2000 -2.6487
  238PVA    C5140458   7.385   1.824   6.222 -0.5297 -0.4756  0.4309
  238PVA   H10140459   7.390   1.812   6.331  0.0809  1.4216  0.6365
  238PVA   H10240460   7.419   1.921   6.185 -4.8961  0.6962 -1.2308
  239PVA     C140461   2.540   4.060   0.379  0.3394 -0.4145 -0.4283
  239PVA     H140462   2.530   3.989   0.462 -0.7060  0.3134  0.0803
  239PVA     H240463   2.489   4.020   0.290  0.6570 -0.0817 -0.7648
  239PVA     C240464   2.696   4.080   0.364  0.0936  0.0484  1.0373
  239PVA     H340465   2.698   4.178   0.315 -2.8288 -0.7634 -0.9165
  239PVA     O140466   2.748   4.104   0.487 -0.4725  0.5804 -0.3067
  239PVA     H440467   2.740   4.025   0.544  3.0049 -0.8450 -1.4951
  239PVA     C340468   2.788   3.970   0.297  0.0719 -0.4752 -0.2662
  239PVA     H540469   2.747   3.953   0.196 -1.9110  1.8075  0.0514
  239PVA     H640470   2.769   3.871   0.340  1.2536  1.0511  4.3314
  239PVA     C440471   2.945   3.974   0.307  0.1707  1.1328  0.4462
  239PVA     H740472   2.967   4.003   0.411  2.0278 -0.1759  0.4626
  239PVA     H840473   2.990   3.874   0.316  0.7188  1.2286 -1.0891
  239PVA     C540474   3.026   4.027   0.186  0.2398 -0.9892 -0.2335
  239PVA     H940475   3.001   4.133   0.177  0.5923 -0.9262 -0.5169
  239PVA     O240476   2.966   3.982   0.056 -1.0211 -0.3545  0.6791
  239PVA    H1040477   3.012   3.905   0.017 -0.8362  1.4632 -3.1166
  239PVA     C640478   3.184   4.016   0.178 -0.2266 -0.7647 -0.3099
  239PVA    H1140479   3.244   4.029   0.268  3.7058  0.7400 -2.8875
  239PVA    H1240480   3.218   3.916   0.148  2.5895 -0.1888  0.6821
  239PVA     C740481   3.232   4.116   0.060 -0.4817 -0.0188  0.5647
  239PVA    H1340482   3.189   4.214   0.083  5.0471  2.9974 -0.2973
  239PVA    H1440483   3.186   4.095   8.060 -1.2659 -1.6128  1.2306
  239PVA     C840484   3.388   4.127   0.074 -1.0477  0.2677  1.7177
  239PVA    H1540485   3.439   4.030   0.073  2.0398  1.7269 -0.6288
  239PVA     O340486   3.407   4.200   0.182 -0.4789  0.3136  0.3129
  239PVA    H1640487   3.404   4.294   0.161 -0.6545  1.0412  3.1923
  239PVA     C940488   3.470   4.183   8.036  0.3676  0.1840 -0.6071
  239PVA    H1740489   3.420   4.280   8.023 -1.5157 -0.4861  1.0568
  239PVA    H1840490   3.438   4.104   7.967 -2.0639 -1.1334  1.8386
  239PVA    C1040491   3.620   4.196   8.057 -0.8043 -0.3218 -0.4690
  239PVA    H1940492   3.642   4.258   0.048  0.5018  1.1616 -1.7775
  239PVA    H2040493   3.662   4.097   8.081  1.7901  0.5402 -1.1344
  239PVA    C1140494   3.690   4.234   7.926 -0.3055 -0.0529 -1.1116
  239PVA    H2140495   3.650   4.166   7.849 -0.2740  1.1552 -2.2247
  239PVA     O440496   3.672   4.374   7.900 -0.7386 -1.1621  1.3428
  239PVA    H2240497   3.744   4.390   7.836  0.6184 -1.9565  2.5874
  239PVA    C1240498   3.844   4.213   7.938 -0.9979  0.0670 -0.2540
  239PVA    H2340499   3.901   4.300   7.973  0.8844 -2.0683  2.4436
  239PVA    H2440500   3.875   4.144   8.018 -1.3060 -0.1016 -0.2765
  239PVA    C1340501   3.910   4.157   7.817  1.3164  0.0828  1.1142
  239PVA    H2540502   3.865   4.076   7.758 -1.7304  3.8679 -2.3696
  239PVA    H2640503   4.010   4.126   7.851 -0.3421 -4.6814  2.5242
  239PVA    C1440504   3.932   4.264   7.707 -0.6589 -1.5219  0.0728
  239PVA    H2740505   3.997   4.343   7.747 -1.1825  0.8792 -3.3756
  239PVA     O540506   3.812   4.328   7.658  0.0890  0.1770  0.1735
  239PVA    H2840507   3.799   4.303   7.565  1.7172  2.5843 -0.7921
  239PVA    C1540508   4.018   4.210   7.591  0.2077 -0.8575 -0.2277
  239PVA    H2940509   3.979   4.116   7.551 -0.7284 -0.6176  0.0951
  239PVA    H3040510   4.115   4.178   7.630  0.7149  1.7424  0.8123
  239PVA    C1640511   4.026   4.307   7.478  0.9739  0.3136 -0.1800
  239PVA    H3140512   3.932   4.321   7.423  0.7359 -0.9412 -0.1210
  239PVA    H3240513   4.067   4.400   7.520 -1.8094  0.5475  2.3486
  239PVA    C1740514   4.117   4.254   7.370  0.2264  0.5796  0.0613
  239PVA    H3340515   4.076   4.161   7.328 -4.6889  1.7719  1.6074
  239PVA     O640516   4.245   4.231   7.431  0.0964 -0.2248  1.1074
  239PVA    H3440517   4.310   4.197   7.367  1.0846  5.0882 -1.1542
  239PVA    C1840518   4.137   4.356   7.251  0.4191  0.6875 -0.1068
  239PVA    H3540519   4.197   4.443   7.280 -2.5416  3.1980 -0.9807
  239PVA    H3640520   4.048   4.413   7.223  1.1154  0.9149 -2.0273
  239PVA    C1940521   4.192   4.302   7.110 -0.2397  0.0665  0.3587
  239PVA    H3740522   4.108   4.254   7.057 -0.7278  0.7771  0.4810
  239PVA    H3840523   4.275   4.231   7.123  2.5434  2.4931 -2.5982
  239PVA    C2040524   4.254   4.412   7.016  0.0161  0.6749  0.5636
  239PVA    H3940525   4.349   4.454   7.050  1.8801 -3.1471  0.5349
  239PVA     O740526   4.139   4.498   6.992  0.3350 -0.0672 -0.2676
  239PVA    H4040527   4.158   4.578   7.045 -1.2483  1.6373 -2.1400
  239PVA    C2140528   4.313   4.351   6.888 -0.8530  0.3768 -0.0098
  239PVA    H4140529   4.254   4.347   6.795  0.6644 -4.4253 -1.0882
  239PVA    H4240530   4.318   4.242   6.901 -2.2004  0.2637 -0.3414
  239PVA    C2240531   4.452   4.389   6.838 -0.8242 -0.0091 -0.0305
  239PVA    H4340532   4.432   4.483   6.784 -1.1363  1.0913  1.8957
  239PVA    H4440533   4.509   4.427   6.924  4.2227 -1.7432 -2.2427
  239PVA    C2340534   4.541   4.301   6.761 -0.6462  1.0174 -0.1497
  239PVA    H4540535   4.551   4.205   6.813 -0.0919 -1.1904 -3.9938
  239PVA     O840536   4.477   4.261   6.639 -0.6343  0.2460  0.1035
  239PVA    H4640537   4.540   4.203   6.593 -2.3467 -4.4285  2.9415
  239PVA    C2440538   4.685   4.362   6.736  1.1771 -0.0829  0.0152
  239PVA    H4740539   4.668   4.471   6.733 -1.9899 -0.5086 -0.6748
  239PVA    H4840540   4.745   4.348   6.827  0.9273  3.4020  0.8619
  239PVA    C2540541   4.769   4.305   6.614 -0.5366 -0.3479 -0.3108
  239PVA    H4940542   4.855   4.371   6.598 -0.7368 -0.0953 -0.3450
  239PVA    H5040543   4.701   4.315   6.529  1.2865 -0.8786 -1.8871
  239PVA    C2640544   4.815   4.158   6.620  0.1565 -0.7638  0.0002
  239PVA    H5140545   4.882   4.134   6.704  2.8275  1.2752 -1.4107
  239PVA     O940546   4.701   4.073   6.618 -0.5146 -0.1278  0.1874
  239PVA    H5240547   4.726   3.979   6.613  4.9536  0.9854  0.6846
  239PVA    C2740548   4.909   4.143   6.491  0.7445  1.3866 -0.8259
  239PVA    H5340549   5.008   4.119   6.533  0.9224 -0.7796 -2.3291
  239PVA    H5440550   4.929   4.230   6.427  0.2964  0.8290 -1.7437
  239PVA    C2840551   4.881   4.029   6.403  0.3822  1.1942 -0.6631
  239PVA    H5540552   4.901   3.931   6.448  1.1801  1.5227 -0.2694
  239PVA    H5640553   4.781   4.024   6.360  1.3040 -0.3580 -2.7773
  239PVA    C2940554   4.976   4.035   6.276 -1.1612  0.5134 -1.5132
  239PVA    H5740555   5.073   4.083   6.289 -1.3033  0.8465 -1.6762
  239PVA    O1040556   4.917   4.100   6.164  0.4302 -0.1271 -0.3083
  239PVA    H5840557   4.825   4.070   6.156 -0.4215  2.4585 -1.2162
  239PVA    C3040558   5.025   3.897   6.238  0.1900  0.9224  0.9204
  239PVA    H5940559   5.068   3.847   6.325 -1.5744 -0.3376  1.1149
  239PVA    H6040560   4.937   3.836   6.215  3.0326 -2.5618 -1.9507
  239PVA    C3140561   5.131   3.890   6.116  0.0276 -0.6247 -0.7796
  239PVA    H6140562   5.217   3.941   6.159 -0.8332 -1.5864  2.3948
  239PVA    H6240563   5.092   3.949   6.032 -0.2264 -1.8600 -1.5614
  239PVA    C3240564   5.160   3.743   6.078 -0.3184 -0.6094 -0.5762
  239PVA    H6340565   5.183   3.702   6.178  2.0636 -0.9323 -1.2150
  239PVA    O1140566   5.046   3.663   6.029 -0.2334  1.1309 -0.0467
  239PVA    H6440567   5.103   3.600   5.982  2.0790  3.6807 -0.9737
  239PVA    C3340568   5.275   3.716   5.985  0.0511 -0.3069  0.2134
  239PVA    H6540569   5.266   3.771   5.891 -0.5911  4.3090  2.6836
  239PVA    H6640570   5.363   3.754   6.037 -0.2166  1.2996 -0.4443
  239PVA    C3440571   5.318   3.570   5.956 -0.0063  0.6978 -0.2544
  239PVA    H6740572   5.239   3.529   5.891  0.4050  1.3755 -1.2023
  239PVA    H6840573   5.318   3.515   6.051  2.1027  2.0601  0.5877
  239PVA    C3540574   5.466   3.564   5.877  0.2655  0.1385 -0.5456
  239PVA    H6940575   5.535   3.616   5.944 -1.4317  2.7130 -0.6684
  239PVA    O1240576   5.472   3.644   5.761  0.1405 -1.1121 -0.2746
  239PVA    H7040577   5.397   3.705   5.765  2.8553  2.5197  3.3614
  239PVA    C3640578   5.507   3.409   5.849  0.7019 -0.5450 -0.4205
  239PVA    H7140579   5.441   3.353   5.782 -1.1833 -0.6880  1.4467
  239PVA    H7240580   5.497   3.362   5.948 -1.8509 -1.2324 -0.9414
  239PVA    C3740581   5.654   3.396   5.796  0.0400  0.5445  0.0026
  239PVA    H7340582   5.718   3.425   5.881 -0.2630 -0.6934  0.6762
  239PVA    H7440583   5.688   3.464   5.717  2.4286  2.9595  2.8464
  239PVA    C3840584   5.685   3.247   5.760  0.2470 -0.6959 -0.4610
  239PVA    H7540585   5.593   3.191   5.737 -0.4670 -1.6772  3.9025
  239PVA    O1340586   5.732   3.182   5.881 -0.2222  0.7589  0.3575
  239PVA    H7640587   5.815   3.227   5.906  1.7807 -2.9825  1.1390
  239PVA    C3940588   5.797   3.245   5.655  0.4105  0.1405  0.5598
  239PVA    H7740589   5.887   3.282   5.705 -0.3475  1.5549  0.9198
  239PVA    H7840590   5.782   3.324   5.580  1.8589  1.8067  1.9298
  239PVA    C4040591   5.833   3.093   5.599  0.5245 -0.0023 -0.7758
  239PVA    H7940592   5.739   3.058   5.554 -0.4588  1.1390  0.3297
  239PVA    H8040593   5.904   3.074   5.518 -2.1553 -4.0861 -2.5229
  239PVA    C4140594   5.874   2.994   5.712 -0.3769 -0.3331 -0.9064
  239PVA    H8140595   5.915   3.063   5.786 -4.4786  0.0456  1.2966
  239PVA    O1440596   5.765   2.939   5.775  0.2242  0.1331 -0.5673
  239PVA    H8240597   5.749   2.986   5.859 -4.3061 -0.3000 -0.9408
  239PVA    C4240598   5.966   2.882   5.669 -1.0987  0.7546  0.0503
  239PVA    H8340599   6.056   2.923   5.621 -0.9841 -0.5479 -0.9259
  239PVA    H8440600   5.903   2.818   5.606 -1.4622  0.7918  0.3713
  239PVA    C4340601   6.033   2.822   5.807  0.3125  0.3392  0.6031
  239PVA    H8540602   5.960   2.745   5.835 -0.2380  0.2161 -1.0723
  239PVA    H8640603   6.045   2.888   5.894  2.0404  1.5778 -0.5177
  239PVA    C4440604   6.173   2.744   5.786 -0.0959 -0.1189  0.8967
  239PVA    H8740605   6.258   2.814   5.791  0.7327 -1.1529  1.6746
  239PVA    O1540606   6.188   2.684   5.660  0.3518  0.0493 -0.4247
  239PVA    H8840607   6.200   2.588   5.658 -2.4090 -0.4077 -2.8496
  239PVA    C4540608   6.202   2.641   5.890 -0.2433  0.4686 -0.0593
  239PVA    H8940609   6.110   2.585   5.912 -0.7189  0.0351 -2.8278
  239PVA    H9040610   6.219   2.668   5.995 -6.8319 -3.5986  2.7691
  239PVA    C4640611   6.311   2.526   5.852 -0.2585 -0.2811  0.9279
  239PVA    H9140612   6.272   2.476   5.762  0.5408 -1.1210  1.0324
  239PVA    H9240613   6.398   2.582   5.816  0.0089 -0.4171  1.3551
  239PVA    C4740614   6.341   2.420   5.952 -0.4930 -0.1507 -0.7295
  239PVA    H9340615   6.236   2.403   5.978 -1.2981 -0.9110 -3.9996
  239PVA    O1640616   6.423   2.479   6.057 -0.1190  0.0326  0.2004
  239PVA    H9440617   6.404   2.572   6.039  1.7354  0.2305 -1.0389
  239PVA    C4840618   6.406   2.279   5.908  0.7242  0.0114 -0.6009
  239PVA    H9540619   6.515   2.269   5.901  0.5153 -3.1565 -0.5045
  239PVA    H9640620   6.382   2.221   5.997 -0.1063  0.5667 -0.4522
  239PVA    C4940621   6.320   2.216   5.790 -0.2724  0.1429 -1.2107
  239PVA    H9740622   6.382   2.254   5.708  2.6404  0.8283  1.1498
  239PVA    H9840623   6.213   2.239   5.784 -0.6985 -0.0014  2.8594
  239PVA    C5040624   6.339   2.061   5.779 -0.1316  0.2267 -0.3412
  239PVA    H9940625   6.446   2.062   5.800 -0.1181  1.3504 -0.4010
  239PVA    O1740626   6.269   2.020   5.895 -0.5782  1.0520  0.3143
  239PVA   H10040627   6.192   2.078   5.904  1.3442  3.6710  1.2373
  239PVA    C5140628   6.298   1.992   5.641 -0.1770 -0.1552 -0.3294
  239PVA   H10140629   6.297   2.063   5.558 -0.8232 -0.1548 -0.3297
  239PVA   H10240630   6.194   1.961   5.622 -1.0903  2.1620  0.4965
  240PVA     C140631   7.375   1.562   5.438  0.6705 -0.7671  0.0985
  240PVA     H140632   7.452   1.557   5.516 -2.1638  0.5789  3.2354
  240PVA     H240633   7.422   1.568   5.339 -2.5525  1.9139 -1.4721
  240PVA     C240634   7.293   1.430   5.464 -0.1120 -0.0046 -0.5366
  240PVA     H340635   7.206   1.471   5.517  1.2567  4.0105 -1.0373
  240PVA     O140636   7.257   1.391   5.333  0.8982  1.4453 -0.0352
  240PVA     H440637   7.304   1.450   5.272 -0.8085  1.1264 -1.7538
  240PVA     C340638   7.371   1.312   5.528 -0.2744  0.3757  0.0283
  240PVA     H540639   7.403   1.346   5.627  2.0757 -1.7591  0.0983
  240PVA     H640640   7.472   1.299   5.487  0.8475  2.9641  1.7255
  240PVA     C440641   7.290   1.176   5.543  1.6933 -0.3378 -0.3337
  240PVA     H740642   7.212   1.209   5.613  2.3885  3.5348 -1.1619
  240PVA     H840643   7.231   1.142   5.458  5.1723 -1.2507 -2.5761
  240PVA     C540644   7.383   1.059   5.591 -0.8454  0.5076  0.9086
  240PVA     H940645   7.476   1.073   5.533 -0.6273 -1.6274  0.6795
  240PVA     O240646   7.419   1.095   5.721 -0.5597 -0.5435 -0.2856
  240PVA    H1040647   7.343   1.087   5.781  0.8886  4.4519  2.9212
  240PVA     C640648   7.333   0.909   5.586  0.3390 -0.2406  0.4945
  240PVA    H1140649   7.394   0.848   5.654  0.0763 -2.0965 -0.8261
  240PVA    H1240650   7.239   0.881   5.635  2.0334 -2.2826  2.8425
  240PVA     C740651   7.336   0.846   5.438  0.0322  0.3820 -0.9609
  240PVA    H1340652   7.441   0.850   5.409  0.5576 -1.6054  0.3823
  240PVA    H1440653   7.275   0.890   5.358 -2.0914 -0.3066  0.1922
  240PVA     C840654   7.299   0.692   5.448  0.3977  0.1496 -0.7867
  240PVA    H1540655   7.349   0.642   5.532 -1.7420  1.1056  1.1474
  240PVA     O340656   7.163   0.689   5.496  0.6401 -0.4195  0.6511
  240PVA    H1640657   7.149   0.614   5.557  2.7108 -1.5619 -0.1814
  240PVA     C940658   7.315   0.626   5.312 -0.7212  0.3119 -0.6097
  240PVA    H1740659   7.419   0.644   5.282 -1.1212 -2.5907 -4.6026
  240PVA    H1840660   7.245   0.682   5.249  0.7835 -1.6428 -4.4020
  240PVA    C1040661   7.288   0.470   5.306  0.7243  0.2108  0.3047
  240PVA    H1940662   7.348   0.444   5.394  1.7412  1.0065 -0.1259
  240PVA    H2040663   7.182   0.461   5.333  1.5064  0.3797  4.0362
  240PVA    C1140664   7.323   0.384   5.174  0.3509  0.2393  0.6184
  240PVA    H2140665   7.402   0.427   5.112  1.3285 -1.7263  0.4297
  240PVA     O440666   7.213   0.406   5.082  0.9629  0.1526 -0.4696
  240PVA    H2240667   7.134   0.434   5.131  1.2009  0.5564 -0.3119
  240PVA    C1240668   7.362   0.232   5.207  0.0485  0.4391  0.0366
  240PVA    H2340669   7.423   0.223   5.298 -1.6650  0.4935  1.2502
  240PVA    H2440670   7.265   0.185   5.229  1.0746 -2.2724 -0.8185
  240PVA    C1340671   7.415   0.152   5.084  1.2401  0.6345 -0.2526
  240PVA    H2540672   7.488   0.222   5.040  0.0378  2.1658  0.1125
  240PVA    H2640673   7.336   0.127   5.012  1.7438  0.8966 -0.9174
  240PVA    C1440674   7.500   0.033   5.123 -0.1739  0.5124 -0.7506
  240PVA    H2740675   7.596   0.081   5.146  1.1076 -1.2870 -2.0259
  240PVA     O540676   7.471   7.659   5.250 -0.5731 -0.2999 -0.3894
  240PVA    H2840677   7.390   7.614   5.220  1.4609 -2.8487 -2.4354
  240PVA    C1540678   7.522   7.617   5.004 -1.2713  0.8947 -0.8010
  240PVA    H2940679   7.556   0.004   4.928  2.5176 -0.1635 -0.3401
  240PVA    H3040680   7.434   7.555   4.984 -1.4952  0.2100  1.9480
  240PVA    C1640681   7.631   7.501   5.027  0.6669 -0.2927  0.7333
  240PVA    H3140682   7.704   7.524   4.948  0.5556 -2.8100 -0.1945
  240PVA    H3240683   7.685   7.519   5.121  5.6874  2.1829 -2.2064
  240PVA    C1740684   7.570   7.356   5.032  1.0615  1.1450  0.2287
  240PVA    H3340685   7.484   7.335   5.097  0.2367 -0.6226 -1.3319
  240PVA     O640686   7.509   7.344   4.896 -0.6722 -0.7348 -0.2112
  240PVA    H3440687   7.450   7.421   4.891  0.4513  0.2583  1.0784
  240PVA    C1840688   7.692   7.256   5.049  0.8048 -0.0812 -0.1772
  240PVA    H3540689   7.745   7.267   5.145 -1.0693 -1.1113  1.0429
  240PVA    H3640690   7.760   7.266   4.964 -0.4999  1.5525 -1.1027
  240PVA    C1940691   7.661   7.108   5.067 -0.7165 -0.0911  0.9558
  240PVA    H3740692   7.642   7.082   5.172 -2.2436  2.7183  1.4977
  240PVA    H3840693   7.568   7.087   5.012  0.2911 -0.5556 -0.6270
  240PVA    C2040694   0.003   7.012   5.000  0.1465  0.8866  1.1370
  240PVA    H3940695   7.763   7.013   4.891  0.8895  0.7951  1.0952
  240PVA     O740696   0.138   7.048   5.050  0.5098 -0.3542 -0.0053
  240PVA    H4040697   0.140   7.144   5.036 -0.7439 -0.4910 -1.3399
  240PVA    C2140698   7.733   6.873   5.050  0.7867  0.2416 -1.6780
  240PVA    H4140699   7.625   6.853   5.039  0.5697  0.2965  0.1039
  240PVA    H4240700   7.755   6.853   5.155 -0.3603 -6.1995 -2.2488
  240PVA    C2240701   0.039   6.752   4.979 -1.1731 -0.2704  0.4934
  240PVA    H4340702   0.076   6.786   4.881 -2.6125  1.1758  0.4208
  240PVA    H4440703   0.131   6.726   5.033 -0.6328  1.3453  0.4027
  240PVA    C2340704   7.726   6.619   4.940  0.6282  0.3626 -1.0370
  240PVA    H4540705   0.037   6.552   4.900  1.4394  0.1322  0.7911
  240PVA     O840706   7.661   6.576   5.062  0.8125 -0.5753  0.0047
  240PVA    H4640707   7.591   6.511   5.042 -2.4517  2.9678 -1.2393
  240PVA    C2440708   7.621   6.630   4.821  1.6305 -0.6864  1.0267
  240PVA    H4740709   7.518   6.643   4.857  0.4375 -1.1105 -1.9261
  240PVA    H4840710   7.647   6.710   4.750 -0.2532 -2.5571 -2.0132
  240PVA    C2540711   7.603   6.511   4.723  0.0823  0.5133 -0.8670
  240PVA    H4940712   7.698   6.457   4.715 -0.3032 -0.0975 -1.4798
  240PVA    H5040713   7.519   6.461   4.772 -0.5500  2.5183  0.2186
  240PVA    C2640714   7.569   6.531   4.570  1.2493 -0.1347 -0.2832
  240PVA    H5140715   7.657   6.577   4.523 -1.0883  1.4520 -3.5311
  240PVA     O940716   7.543   6.394   4.512  0.1775  0.2798  0.9212
  240PVA    H5240717   7.498   6.339   4.579  2.1899  0.1852  2.2994
  240PVA    C2740718   7.436   6.620   4.547  0.0083  0.3022  0.4681
  240PVA    H5340719   7.451   6.705   4.615  2.5088 -0.3870  0.8712
  240PVA    H5440720   7.344   6.569   4.580  1.2516 -1.9542  0.6147
  240PVA    C2840721   7.412   6.676   4.398  0.6330 -0.3345 -1.8152
  240PVA    H5540722   7.495   6.745   4.378  2.3148 -1.1024  1.7249
  240PVA    H5640723   7.417   6.597   4.322 -3.1775 -3.3097  0.6385
  240PVA    C2940724   7.289   6.766   4.382  1.4593  0.3628  0.0960
  240PVA    H5740725   7.212   6.713   4.439  1.0035 -0.6373 -1.3752
  240PVA    O1040726   7.264   6.778   4.248 -0.0675  0.0827 -0.3322
  240PVA    H5840727   7.332   6.830   4.202 -2.3817 -0.8442 -5.4781
  240PVA    C3040728   7.300   6.899   4.463  0.1445 -0.8260  0.8660
  240PVA    H5940729   7.293   6.876   4.571 -4.0056 -0.4334  0.8352
  240PVA    H6040730   7.404   6.927   4.440 -0.5474  0.3193 -1.0294
  240PVA    C3140731   7.216   7.037   4.434  0.1437 -0.4208 -0.8889
  240PVA    H6140732   7.152   7.027   4.346 -1.0060 -0.7266 -0.0322
  240PVA    H6240733   7.282   7.115   4.394  1.1061  0.2456  1.7855
  240PVA    C3240734   7.150   7.105   4.561  0.6574  0.3141  0.5963
  240PVA    H6340735   7.169   7.043   4.649 -4.0068 -1.8113  0.4071
  240PVA    O1140736   7.010   7.099   4.534 -0.6727 -0.0802 -0.8693
  240PVA    H6440737   7.006   7.006   4.505 -2.6750 -1.0936  2.2051
  240PVA    C3340738   7.194   7.240   4.623 -0.2167 -0.3570 -0.3471
  240PVA    H6540739   7.196   7.327   4.557 -0.7126  1.2191  1.6357
  240PVA    H6640740   7.301   7.238   4.646  0.7578  3.0466 -3.7253
  240PVA    C3440741   7.125   7.277   4.769  1.3099  0.8597 -0.0235
  240PVA    H6740742   7.023   7.311   4.750 -0.6159 -2.3108  3.3815
  240PVA    H6840743   7.094   7.190   4.828 -1.1156  0.3182 -1.9017
  240PVA    C3540744   7.182   7.384   4.856  0.1233  0.5873  0.1097
  240PVA    H6940745   7.259   7.336   4.918 -0.9065 -0.3055  0.7334
  240PVA    O1240746   7.234   7.496   4.778 -0.0465  0.2721 -0.6375
  240PVA    H7040747   7.276   7.462   4.697  0.8462 -3.1889  1.0644
  240PVA    C3640748   7.084   7.440   4.962 -0.8081 -1.5871  0.3465
  240PVA    H7140749   6.985   7.414   4.924 -0.1135 -0.2739 -2.6209
  240PVA    H7240750   7.101   7.377   5.051  1.4141 -2.1578 -0.4225
  240PVA    C3740751   7.098   7.591   5.002  0.1993 -0.3304 -0.4832
  240PVA    H7340752   7.200   7.619   5.032 -0.8189  1.4462  1.6455
  240PVA    H7440753   7.107   7.658   4.916  6.1405  1.1687  0.8357
  240PVA    C3840754   6.987   7.652   5.098 -0.9652  0.2870 -0.3250
  240PVA    H7540755   6.885   7.619   5.078 -0.2809 -1.1445 -1.6974
  240PVA    O1340756   7.028   7.616   5.220  0.2769 -0.0966  0.3344
  240PVA    H7640757   6.990   0.000   5.277 -0.6195  1.3646 -1.8809
  240PVA    C3940758   6.977   0.123   5.096 -0.1090  0.1642  0.2407
  240PVA    H7740759   6.939   0.150   4.997 -6.1940 -0.7380  1.9342
  240PVA    H7840760   7.080   0.161   5.095 -0.9098  2.4845 -0.5299
  240PVA    C4040761   6.867   0.184   5.188 -0.4417 -0.6398 -0.3956
  240PVA    H7940762   6.772   0.136   5.160 -1.1806  0.2370  0.5348
  240PVA    H8040763   6.887   0.160   5.293 -0.4460  2.4923  0.4085
  240PVA    C4140764   6.856   0.342   5.201 -0.4265  0.9641  1.0868
  240PVA    H8140765   6.847   0.380   5.099 -0.7136 -0.7190  0.4415
  240PVA    O1440766   6.975   0.396   5.246 -0.0206 -0.4572  0.4474
  240PVA    H8240767   6.982   0.392   5.343 -1.4158 -2.9739  0.5280
  240PVA    C4240768   6.754   0.387   5.303 -0.3603  0.0211 -0.0314
  240PVA    H8340769   6.667   0.321   5.307 -0.7799  0.6126  1.2270
  240PVA    H8440770   6.797   0.379   5.404  0.6478 -0.4954 -0.4860
  240PVA    C4340771   6.715   0.547   5.287 -1.2700 -0.2692 -0.0820
  240PVA    H8540772   6.621   0.559   5.233  0.2353  1.0627 -2.5600
  240PVA    H8640773   6.796   0.597   5.232 -2.8785 -1.1903 -3.5666
  240PVA    C4440774   6.682   0.615   5.416 -0.0689 -0.1633  0.1125
  240PVA    H8740775   6.597   0.564   5.462 -0.3872  0.1007 -0.1702
  240PVA    O1540776   6.776   0.619   5.523 -1.2740  0.4032 -0.9901
  240PVA    H8840777   6.749   0.700   5.570 -0.2354 -0.1951  0.7561
  240PVA    C4540778   6.637   0.767   5.395 -0.4722 -1.1719 -1.1881
  240PVA    H8940779   6.532   0.761   5.365 -2.0568 -2.0641  3.6016
  240PVA    H9040780   6.705   0.814   5.323  0.9765  2.2579  2.0964
  240PVA    C4640781   6.626   0.870   5.520  0.1280 -0.4920  0.1760
  240PVA    H9140782   6.596   0.808   5.606  1.1718 -0.5224  0.5332
  240PVA    H9240783   6.723   0.906   5.556  0.5933 -3.7913  2.6801
  240PVA    C4740784   6.527   0.987   5.501 -0.0892  0.5585  0.3379
  240PVA    H9340785   6.528   1.008   5.393  1.2594  2.4986  0.6880
  240PVA    O1640786   6.400   0.947   5.545 -0.4605 -0.2744  0.2365
  240PVA    H9440787   6.367   1.022   5.597 -0.2984 -1.4025  2.0406
  240PVA    C4840788   6.575   1.110   5.584 -1.2279  0.6936 -0.9954
  240PVA    H9540789   6.601   1.071   5.683 -2.1084 -1.0688 -1.4361
  240PVA    H9640790   6.663   1.158   5.539 -3.1357  5.7151 -0.0618
  240PVA    C4940791   6.470   1.222   5.601 -0.3496 -1.6371  0.2307
  240PVA    H9740792   6.423   1.195   5.697 -2.5331  2.5264  0.5749
  240PVA    H9840793   6.400   1.208   5.518 -2.0141 -2.1009  1.6473
  240PVA    C5040794   6.523   1.372   5.624 -0.5070  0.5178 -0.3294
  240PVA    H9940795   6.575   1.391   5.529  0.7639 -2.2656 -0.2862
  240PVA    O1740796   6.617   1.381   5.731 -0.6217  0.5689 -0.5072
  240PVA   H10040797   6.661   1.296   5.747  1.6470  1.4157 -1.7760
  240PVA    C5140798   6.416   1.485   5.645  0.6003 -0.0945 -0.7827
  240PVA   H10140799   6.339   1.478   5.724  0.8964  0.1466 -0.4671
  240PVA   H10240800   6.342   1.464   5.567  0.0618 -2.0549  0.1778
  241PVA     C140801   7.398   2.063   5.507  0.1415  0.4098  0.5703
  241PVA     H140802   7.302   2.083   5.458 -0.6067 -0.4802  1.6278
  241PVA     H240803   7.473   2.106   5.439 -1.9554  3.6689  0.0919
  241PVA     C240804   7.419   2.167   5.622 -0.6284  0.8529 -0.2802
  241PVA     H340805   7.524   2.160   5.655 -0.0280 -0.6648 -2.2741
  241PVA     O140806   7.341   2.132   5.730  0.2319  0.0145  0.0723
  241PVA     H440807   7.300   2.048   5.704 -2.9889  1.5888 -0.3855
  241PVA     C340808   7.413   2.322   5.580  0.5697  0.0453  1.0710
  241PVA     H540809   7.347   2.335   5.493  0.6983 -2.5769  0.5027
  241PVA     H640810   7.517   2.349   5.557  0.2105  0.3763 -0.2692
  241PVA     C440811   7.361   2.405   5.701  0.9786 -0.4199  0.6051
  241PVA     H740812   7.265   2.358   5.723  0.3173 -1.0295 -2.9858
  241PVA     H840813   7.420   2.399   5.793  1.3396 -0.9690  0.3431
  241PVA     C540814   7.302   2.548   5.673  0.0978  0.4698 -0.3878
  241PVA     H940815   7.389   2.614   5.666  0.3216  0.2489  0.2374
  241PVA     O240816   7.237   2.543   5.549  0.7268  0.1348  0.4471
  241PVA    H1040817   7.151   2.506   5.574 -0.8910  2.3878 -1.3454
  241PVA     C640818   7.216   2.598   5.789 -0.0767 -0.2623 -1.0206
  241PVA    H1140819   7.145   2.516   5.809 -2.1942  1.0153 -2.8913
  241PVA    H1240820   7.297   2.602   5.863  0.0202 -2.3996 -0.9395
  241PVA     C740821   7.149   2.740   5.771 -0.0264 -0.2134 -0.0990
  241PVA    H1340822   7.080   2.725   5.688  0.5808 -0.4514 -0.5643
  241PVA    H1440823   7.211   2.820   5.730 -0.7515  0.0653 -0.6646
  241PVA     C840824   7.074   2.787   5.904 -0.5308 -0.0248 -0.6147
  241PVA    H1540825   7.139   2.753   5.985 -0.4185 -2.4150 -1.6114
  241PVA     O340826   6.951   2.710   5.913  0.2352  0.2443 -0.0158
  241PVA    H1640827   6.897   2.742   5.839  4.6644 -0.0450 -3.7440
  241PVA     C940828   7.044   2.940   5.913 -0.8050 -0.0122 -0.9543
  241PVA    H1740829   6.953   2.952   5.854 -2.7257 -2.8156  1.1417
  241PVA    H1840830   7.117   3.005   5.863  0.6788 -2.7331 -2.5694
  241PVA    C1040831   7.034   2.978   6.058 -0.9733 -0.4448  0.4730
  241PVA    H1940832   7.132   3.001   6.101 -2.3474 -0.3511  3.8192
  241PVA    H2040833   6.994   2.893   6.113 -0.2421 -0.9861  0.1791
  241PVA    C1140834   6.935   3.088   6.099  0.0920 -0.8485  1.0857
  241PVA    H2140835   6.955   3.158   6.017 -3.0112 -1.4907 -0.3756
  241PVA     O440836   6.792   3.054   6.095 -0.2432 -0.0071  0.2368
  241PVA    H2240837   6.771   2.982   6.157  0.1714 -2.1846 -1.9734
  241PVA    C1240838   6.975   3.164   6.221 -0.0787 -0.3959 -0.1799
  241PVA    H2340839   6.990   3.096   6.306 -1.2384 -3.4409 -2.2409
  241PVA    H2440840   7.078   3.201   6.219 -0.2924  0.3691  1.3224
  241PVA    C1340841   6.875   3.284   6.266  0.0528  0.7346  0.2625
  241PVA    H2540842   6.855   3.347   6.179 -2.1533  1.3923  1.1617
  241PVA    H2640843   6.785   3.228   6.296  2.7581 -3.7726  0.9126
  241PVA    C1440844   6.906   3.377   6.386 -0.8726  1.2139  0.1683
  241PVA    H2740845   7.015   3.384   6.390 -0.5294 -2.2220 -0.0866
  241PVA     O540846   6.863   3.317   6.503  0.2101  0.5246  0.6618
  241PVA    H2840847   6.902   3.228   6.506 -1.8102 -0.4276  0.5841
  241PVA    C1540848   6.836   3.510   6.372 -0.4777 -0.4129 -0.5540
  241PVA    H2940849   6.731   3.476   6.377 -1.1932  1.8023  2.7111
  241PVA    H3040850   6.859   3.546   6.271 -0.1094  0.3011 -0.2213
  241PVA    C1640851   6.871   3.624   6.481  0.3259  1.5969  0.9115
  241PVA    H3140852   6.815   3.613   6.575 -2.5517  3.4573 -0.4250
  241PVA    H3240853   6.974   3.603   6.510  0.6953  1.9569 -0.1016
  241PVA    C1740854   6.861   3.765   6.429 -0.2625 -0.1716 -0.7984
  241PVA    H3340855   6.823   3.817   6.518  1.9925 -2.2347  1.5314
  241PVA     O640856   6.777   3.781   6.317 -0.0511  0.2913 -0.7526
  241PVA    H3440857   6.818   3.821   6.238 -0.4750 -0.0939 -1.1844
  241PVA    C1840858   7.002   3.833   6.415 -0.5160 -0.7492 -0.2789
  241PVA    H3540859   7.029   3.862   6.517 -0.1349  1.6519 -0.9944
  241PVA    H3640860   7.083   3.768   6.381 -0.9422  0.1663 -3.3579
  241PVA    C1940861   7.008   3.958   6.321  0.6834  1.0186  0.8123
  241PVA    H3740862   6.927   4.025   6.350 -1.9577 -0.6989 -2.0381
  241PVA    H3840863   6.969   3.932   6.222 -1.4714 -2.3988  2.3850
  241PVA    C2040864   7.160   4.011   6.315  0.5434  0.4149  0.0239
  241PVA    H3940865   7.233   3.930   6.307  1.1907  0.7954  1.5798
  241PVA     O740866   7.197   4.048   6.442 -0.6385 -0.1478  0.1515
  241PVA    H4040867   7.128   4.108   6.477  0.9663  0.8038  1.8964
  241PVA    C2140868   7.195   4.117   6.192  0.5717  0.7142 -0.7317
  241PVA    H4140869   7.207   4.220   6.225  0.5301  0.1386  1.1794
  241PVA    H4240870   7.123   4.098   6.111  3.3754 -0.8199 -3.0678
  241PVA    C2240871   7.339   4.069   6.144  0.9205  0.4437  0.3797
  241PVA    H4340872   7.399   4.075   6.235 -1.7181 -0.7301  2.3207
  241PVA    H4440873   7.332   3.964   6.111  1.9456  1.2502 -2.6902
  241PVA    C2340874   7.409   4.177   6.042  0.4056 -0.3002 -0.4947
  241PVA    H4540875   7.458   4.242   6.115 -3.3817  1.0861  1.0593
  241PVA     O840876   7.313   4.254   5.975  0.2061 -0.2368  0.0465
  241PVA    H4640877   7.306   4.347   6.001  0.3978 -0.4212  0.7918
  241PVA    C2440878   7.523   4.120   5.949  0.3570  0.8731 -0.0813
  241PVA    H4740879   7.529   4.012   5.932 -6.0720  0.1799 -0.3480
  241PVA    H4840880   7.613   4.134   6.009  0.3368 -0.8955  0.4249
  241PVA    C2540881   7.540   4.204   5.815 -0.5231  0.2870  0.0870
  241PVA    H4940882   7.542   4.312   5.833  0.8442  0.0903  1.4141
  241PVA    H5040883   7.452   4.205   5.750  0.8641  0.1198 -1.9009
  241PVA    C2640884   7.658   4.130   5.726 -0.0031 -0.2099 -0.3833
  241PVA    H5140885   7.649   4.022   5.742  2.3729 -0.6642 -1.6732
  241PVA     O940886   0.009   4.190   5.780 -0.1327 -0.2877  0.8173
  241PVA    H5240887   0.002   4.200   5.877  5.1652 -0.4542  1.5037
  241PVA    C2740888   7.657   4.159   5.575  0.6163 -0.4081  1.5301
  241PVA    H5340889   7.718   4.249   5.561  1.2977 -0.4137  4.0256
  241PVA    H5440890   7.552   4.173   5.547  1.5656  1.6069 -1.6083
  241PVA    C2840891   7.703   4.060   5.471  0.0120 -0.2481 -0.5637
  241PVA    H5540892   0.032   4.006   5.488  0.2564  0.1193 -0.7211
  241PVA    H5640893   7.630   3.978   5.473 -2.0808  1.4931 -1.3432
  241PVA    C2940894   7.689   4.098   5.323 -1.1048 -0.5611  1.2947
  241PVA    H5740895   7.585   4.134   5.326  0.0498  3.0668  2.3148
  241PVA    O1040896   0.015   4.191   5.282 -0.3884 -0.0166 -0.1257
  241PVA    H5840897   0.092   4.148   5.323 -2.8997 -0.7581  4.4069
  241PVA    C3040898   7.714   3.969   5.232 -0.2169 -0.6877 -0.1106
  241PVA    H5940899   7.654   3.887   5.270  2.4177 -1.1195  3.6257
  241PVA    H6040900   7.676   4.000   5.133 -0.0914  1.1510  0.3811
  241PVA    C3140901   0.094   3.899   5.217  1.2296 -1.5531 -0.6605
  241PVA    H6140902   0.115   3.845   5.311 -2.7335  0.3920  1.5680
  241PVA    H6240903   0.156   3.988   5.204  1.5873 -1.8378 -0.9437
  241PVA    C3240904   0.139   3.832   5.084  0.4728  0.5398  0.0874
  241PVA    H6340905   0.042   3.786   5.059  0.8517 -0.5330  0.5042
  241PVA    O1140906   0.164   3.927   4.985 -0.0748 -1.3053 -0.6371
  241PVA    H6440907   0.175   4.017   5.019 -0.5277 -1.6854  0.5611
  241PVA    C3340908   0.252   3.722   5.091  0.5923 -0.1966  0.2591
  241PVA    H6540909   0.207   3.635   5.141  0.4180  0.5032  1.3517
  241PVA    H6640910   0.337   3.747   5.156  0.8484  0.1257 -0.1911
  241PVA    C3440911   0.300   3.656   4.956  1.1479  0.1566  0.7986
  241PVA    H6740912   0.197   3.643   4.922  1.7134  2.8107 -2.5531
  241PVA    H6840913   0.354   3.726   4.890  1.4055 -1.8089 -1.1730
  241PVA    C3540914   0.383   3.522   4.959 -0.1826  0.3620  0.9698
  241PVA    H6940915   0.466   3.512   5.031  1.9641 -4.1261 -1.6690
  241PVA    O1240916   0.292   3.426   4.990 -0.0818 -0.2693  0.4420
  241PVA    H7040917   0.254   3.406   4.903  2.6535 -0.9725 -0.6767
  241PVA    C3640918   0.454   3.466   4.822 -0.1078  0.2498 -0.8165
  241PVA    H7140919   0.422   3.528   4.738  2.3994  2.2320 -0.4287
  241PVA    H7240920   0.557   3.502   4.818 -0.0676  1.5295  4.2712
  241PVA    C3740921   0.468   3.315   4.786  0.1094 -0.5170 -0.4835
  241PVA    H7340922   0.387   3.244   4.810  1.6702 -2.6553 -1.2623
  241PVA    H7440923   0.535   3.284   4.867  2.4742  2.1584 -1.2889
  241PVA    C3840924   0.518   3.274   4.639  0.8589  0.8436 -0.2713
  241PVA    H7540925   0.604   3.332   4.605 -1.1814  4.1926 -0.1698
  241PVA    O1340926   0.412   3.298   4.543 -0.2278 -0.1320 -0.2331
  241PVA    H7640927   0.417   3.388   4.505 -1.2042  0.7716  1.6622
  241PVA    C3940928   0.556   3.120   4.624 -0.6351 -1.3115 -0.2524
  241PVA    H7740929   0.483   3.064   4.684  0.6291 -1.0844  1.5779
  241PVA    H7840930   0.645   3.107   4.687 -0.3735  2.2664  0.2971
  241PVA    C4040931   0.578   3.061   4.484  0.6507 -0.3942  0.2976
  241PVA    H7940932   0.486   3.056   4.423  0.3385 -0.2067  0.7497
  241PVA    H8040933   0.636   3.135   4.427 -0.7447  0.4368 -0.1170
  241PVA    C4140934   0.642   2.921   4.479  0.2547  0.0320 -0.0719
  241PVA    H8140935   0.587   2.861   4.553 -2.2327  2.5293  0.2526
  241PVA    O1440936   0.786   2.941   4.510 -0.1094  0.0846  0.4654
  241PVA    H8240937   0.813   3.034   4.505 -1.5698  0.4800 -1.7346
  241PVA    C4240938   0.628   2.854   4.333 -0.2950 -0.2722 -0.4733
  241PVA    H8340939   0.526   2.842   4.294 -0.6073  0.8740 -0.0830
  241PVA    H8440940   0.676   2.932   4.272  1.7171 -0.5026  0.7293
  241PVA    C4340941   0.708   2.717   4.322 -0.0266 -0.6937 -0.8403
  241PVA    H8540942   0.658   2.625   4.356 -1.6552 -0.6129 -2.8362
  241PVA    H8640943   0.800   2.724   4.382 -0.9855 -0.6121  0.6773
  241PVA    C4440944   0.752   2.681   4.179 -0.7999  0.1250  0.2186
  241PVA    H8740945   0.828   2.756   4.157  0.0114 -0.4877  0.8726
  241PVA    O1540946   0.640   2.693   4.082 -0.2818  1.1344 -0.3074
  241PVA    H8840947   0.622   2.787   4.099 -1.2853  0.3135  4.8142
  241PVA    C4540948   0.823   2.551   4.151  0.0319  0.2513 -0.0851
  241PVA    H8940949   0.742   2.477   4.154 -0.1232  0.3929  3.5788
  241PVA    H9040950   0.876   2.521   4.242 -1.7902  0.1303  0.9786
  241PVA    C4640951   0.905   2.531   4.020  0.6257 -0.4266 -0.4807
  241PVA    H9140952   0.872   2.578   3.927  4.5009  0.8178 -1.3794
  241PVA    H9240953   0.993   2.593   4.041 -0.3023  1.5286 -2.0695
  241PVA    C4740954   0.939   2.378   3.984  0.5419 -0.6518  0.1117
  241PVA    H9340955   0.839   2.342   3.957 -0.1129 -0.1161  1.7149
  241PVA    O1640956   0.970   2.290   4.097 -0.2197 -1.2844  0.8572
  241PVA    H9440957   0.975   2.359   4.166 -0.5459 -0.5375  0.1420
  241PVA    C4840958   1.038   2.356   3.864  0.1136 -0.5488 -0.3297
  241PVA    H9540959   0.977   2.393   3.781  0.0924 -0.0406 -0.0914
  241PVA    H9640960   1.126   2.419   3.848 -0.3951  0.2294 -0.1120
  241PVA    C4940961   1.091   2.198   3.850 -0.6843  1.2596  0.4448
  241PVA    H9740962   1.123   2.172   3.951 -2.7177  0.8155  1.0043
  241PVA    H9840963   1.011   2.126   3.828 -0.7548  1.3769  0.3198
  241PVA    C5040964   1.210   2.175   3.740  0.3946 -0.0042 -0.4513
  241PVA    H9940965   1.293   2.191   3.810 -1.1348 -1.0586  1.7319
  241PVA    O1740966   1.194   2.279   3.628 -1.2364  0.4452 -0.2441
  241PVA   H10040967   1.097   2.283   3.620 -1.0642  1.3552 -2.3844
  241PVA    C5140968   1.219   2.028   3.676 -0.3089  0.5931 -1.5240
  241PVA   H10140969   1.149   2.019   3.592 -1.5264 -0.4026 -0.4489
  241PVA   H10240970   1.186   1.950   3.745  1.8128  0.1800 -0.9239
  242PVA     C140971   7.267   2.100   5.131  0.2211 -0.4415  0.1271
  242PVA     H140972   7.256   2.018   5.060  0.2550  0.5777 -1.0903
  242PVA     H240973   7.300   2.068   5.230  2.8649 -0.6927 -0.7601
  242PVA     C240974   7.388   2.205   5.079 -0.0607 -0.5942 -0.0021
  242PVA     H340975   7.349   2.304   5.052  0.9687 -1.2212 -4.7040
  242PVA     O140976   7.436   2.152   4.954  0.3583 -0.6956 -0.1664
  242PVA     H440977   7.470   2.063   4.971 -0.4626 -1.1038 -0.6077
  242PVA     C340978   7.525   2.217   5.165 -0.3532 -0.6651 -0.0924
  242PVA     H540979   7.577   2.120   5.164 -0.4807 -0.7309 -1.3606
  242PVA     H640980   7.493   2.249   5.265 -2.8484 -0.2247 -0.9570
  242PVA     C440981   7.637   2.310   5.099  0.5992 -0.5005 -0.2676
  242PVA     H740982   7.686   2.254   5.018 -0.0052 -2.3825  0.6151
  242PVA     H840983   7.581   2.395   5.060 -3.1074 -1.1693  3.0167
  242PVA     C540984   7.754   2.346   5.187 -0.9033 -0.5547 -0.5306
  242PVA     H940985   7.711   2.387   5.279 -0.4170  0.2943 -0.6672
  242PVA     O240986   0.055   2.213   5.196 -0.8959 -0.2873 -0.3601
  242PVA    H1040987   0.135   2.193   5.248 -2.2833 -3.9516  0.7148
  242PVA     C640988   0.096   2.447   5.137 -0.5462 -0.1534  0.5491
  242PVA    H1140989   0.045   2.543   5.133  0.0226  0.3372  3.2064
  242PVA    H1240990   0.126   2.421   5.034  4.2519  2.5697  0.9878
  242PVA     C740991   0.216   2.479   5.235 -0.1368  0.7028 -0.0062
  242PVA    H1340992   0.190   2.492   5.341  0.9831 -0.8597  0.5043
  242PVA    H1440993   0.283   2.396   5.260  0.4219  1.0435 -0.3504
  242PVA     C840994   0.307   2.597   5.177  0.2906  0.7004 -0.5445
  242PVA    H1540995   0.245   2.684   5.151  1.6154  1.7574 -0.3188
  242PVA     O340996   0.363   2.531   5.070  0.2797 -0.2968  0.3633
  242PVA    H1640997   0.300   2.485   5.011 -0.7356 -0.7108  1.7111
  242PVA     C940998   0.429   2.645   5.266  0.4160 -0.4769  0.0586
  242PVA    H1740999   0.393   2.634   5.369 -0.8484 -1.2642 -0.4425
  242PVA    H1841000   0.517   2.580   5.267 -0.6182 -1.9243  0.5971
  242PVA    C1041001   0.454   2.800   5.252  0.1283  0.0643 -0.8007
  242PVA    H1941002   0.470   2.826   5.147  1.7322 -1.1312 -0.8973
  242PVA    H2041003   0.372   2.842   5.311  2.5708  1.3183  1.9519
  242PVA    C1141004   0.571   2.864   5.322 -0.3573  0.0400  0.3839
  242PVA    H2141005   0.573   2.814   5.420 -2.3496  0.6629  0.7864
  242PVA     O441006   0.691   2.853   5.255  0.5106 -0.3482  0.0965
  242PVA    H2241007   0.689   2.767   5.211  0.2896 -0.8945  1.1399
  242PVA    C1241008   0.565   3.019   5.362  0.4862  0.0212  0.0795
  242PVA    H2341009   0.505   3.062   5.281 -2.4150 -1.8545  1.0625
  242PVA    H2441010   0.487   3.030   5.438  4.0421 -1.7966  4.4846
  242PVA    C1341011   0.700   3.098   5.410 -1.1756  0.3480 -0.5955
  242PVA    H2541012   0.795   3.082   5.358  1.0830  4.2237  1.8835
  242PVA    H2641013   0.732   3.034   5.492 -1.8486  0.8170  0.0449
  242PVA    C1441014   0.701   3.248   5.455  0.6289 -0.0707  0.3895
  242PVA    H2741015   0.680   3.294   5.358  0.9022  2.5785  1.5170
  242PVA     O541016   0.578   3.276   5.536  0.4909  0.5348  0.3182
  242PVA    H2841017   0.501   3.241   5.486  0.1728  2.9684 -1.0402
  242PVA    C1541018   0.826   3.319   5.503 -0.8071  0.1478  0.4854
  242PVA    H2941019   0.869   3.270   5.591  0.8338 -0.7127 -0.7390
  242PVA    H3041020   0.906   3.299   5.430 -0.8843 -1.1201  0.7268
  242PVA    C1641021   0.821   3.469   5.532 -0.0694 -0.2292  0.3783
  242PVA    H3141022   0.763   3.490   5.623  1.1653  0.6658  0.9784
  242PVA    H3241023   0.750   3.509   5.458  1.0951  0.2370 -0.5175
  242PVA    C1741024   0.962   3.539   5.510  0.2109 -0.3118  0.3990
  242PVA    H3341025   1.036   3.463   5.535 -0.4811 -0.9491  0.5443
  242PVA     O641026   0.999   3.557   5.369  0.3122  0.3109  0.3527
  242PVA    H3441027   0.979   3.467   5.337  2.9089 -2.5250  5.5229
  242PVA    C1841028   0.999   3.664   5.608 -0.2575 -0.5848  0.3927
  242PVA    H3541029   0.932   3.749   5.588  2.6662  2.7862  3.5203
  242PVA    H3641030   0.970   3.652   5.713 -0.9383 -4.6722 -0.1083
  242PVA    C1941031   1.148   3.730   5.593  0.2865 -0.6220  1.0934
  242PVA    H3741032   1.126   3.790   5.503 -3.1442  0.7639  2.6815
  242PVA    H3841033   1.210   3.643   5.568 -2.2255 -2.1390 -0.3026
  242PVA    C2041034   1.206   3.837   5.694 -0.2016 -0.3120  1.3272
  242PVA    H3941035   1.185   3.825   5.801 -0.4456 -0.6853  1.2394
  242PVA     O741036   1.122   3.951   5.667 -0.7641  0.7956  0.2742
  242PVA    H4041037   1.032   3.915   5.676  0.5738 -4.0731 -2.2639
  242PVA    C2141038   1.354   3.868   5.664  0.3341  0.9212  1.2623
  242PVA    H4141039   1.359   3.901   5.560  2.5964  0.6250  1.2234
  242PVA    H4241040   1.422   3.782   5.671  2.1922  2.3792  7.8258
  242PVA    C2241041   1.420   3.966   5.751 -0.0319 -0.9974 -0.5990
  242PVA    H4341042   1.374   4.063   5.727  2.8821  1.4177  2.5334
  242PVA    H4441043   1.372   3.939   5.846 -1.1256  0.2869 -0.7622
  242PVA    C2341044   1.575   3.984   5.764 -1.0836 -0.6900 -0.2190
  242PVA    H4541045   1.595   4.030   5.862  1.9211  2.0154 -1.9115
  242PVA     O841046   1.659   3.864   5.763  0.0764 -0.5441  0.0913
  242PVA    H4641047   1.634   3.810   5.685  3.9746 -1.4329 -0.7232
  242PVA    C2441048   1.664   4.108   5.705 -1.2575  0.6665 -0.2292
  242PVA    H4741049   1.667   4.117   5.596  0.6934 -0.5927 -0.3365
  242PVA    H4841050   1.629   4.205   5.741  1.7431  2.2600 -1.2206
  242PVA    C2541051   1.819   4.102   5.753 -1.3358  0.6769 -1.2966
  242PVA    H4941052   1.852   4.085   5.856  1.8453  1.6080 -2.0471
  242PVA    H5041053   1.863   4.010   5.714  1.9651  1.7721 -0.5231
  242PVA    C2641054   1.915   4.208   5.685 -0.2684 -0.7123 -0.0540
  242PVA    H5141055   1.894   4.314   5.708  1.4821 -0.3903  0.1958
  242PVA     O941056   2.036   4.172   5.748 -0.0810  0.0478 -0.4032
  242PVA    H5241057   2.043   4.226   5.829  0.3043 -0.2735 -0.2184
  242PVA    C2741058   1.943   4.208   5.533 -1.0451  0.0944  0.6244
  242PVA    H5341059   1.860   4.272   5.501 -0.0169 -0.2671 -3.2492
  242PVA    H5441060   1.913   4.118   5.476 -0.7704  0.3559  0.0577
  242PVA    C2841061   2.073   4.267   5.459 -0.5634 -0.0942 -0.0358
  242PVA    H5541062   2.072   4.375   5.477 -0.2972  0.3258 -2.2188
  242PVA    H5641063   2.158   4.218   5.508  0.6132 -1.5421 -3.2326
  242PVA    C2941064   2.092   4.219   5.312 -1.9246 -0.1121 -0.8596
  242PVA    H5741065   2.082   4.116   5.348  2.0813  0.5605  2.9447
  242PVA    O1041066   1.993   4.274   5.225  0.0545  0.0755 -0.1684
  242PVA    H5841067   1.923   4.210   5.248  1.9121 -1.2792  2.1643
  242PVA    C3041068   2.233   4.214   5.239  0.6550  0.0616 -0.5540
  242PVA    H5941069   2.215   4.258   5.140 -2.9064  0.4508  0.1495
  242PVA    H6041070   2.305   4.276   5.293  0.4549 -0.5747  0.4613
  242PVA    C3141071   2.305   4.077   5.205 -0.1360  0.3370 -0.3123
  242PVA    H6141072   2.240   4.001   5.251  2.3456  0.0935  3.1108
  242PVA    H6241073   2.396   4.077   5.265 -1.6398 -1.8408  2.2094
  242PVA    C3241074   2.319   4.028   5.052 -0.3325 -1.1865 -0.0040
  242PVA    H6341075   2.213   4.028   5.022 -0.1147 -2.9416 -0.8669
  242PVA    O1141076   2.394   4.125   4.970  0.4266  0.3614  1.1707
  242PVA    H6441077   2.486   4.135   5.001  0.3144 -1.1677  2.0738
  242PVA    C3341078   2.379   3.882   5.035 -0.2146 -1.0672  0.3515
  242PVA    H6541079   2.299   3.832   5.091 -0.6607  1.5517  2.2655
  242PVA    H6641080   2.472   3.889   5.094  0.4911  0.3154 -0.8685
  242PVA    C3441081   2.386   3.830   4.888  0.3630  0.1607  0.7630
  242PVA    H6741082   2.462   3.881   4.828  1.3099  0.5253  2.2147
  242PVA    H6841083   2.287   3.843   4.843 -0.6167  1.6821  3.1257
  242PVA    C3541084   2.410   3.687   4.891  0.0255  0.0095  0.2684
  242PVA    H6941085   2.321   3.641   4.937 -1.1344  0.5845 -1.2843
  242PVA    O1241086   2.512   3.656   4.976 -0.0317  0.3170  0.9091
  242PVA    H7041087   2.516   3.560   4.990 -0.9834 -0.0425 -0.9134
  242PVA    C3641088   2.417   3.607   4.743  0.2402  0.2377 -0.0240
  242PVA    H7141089   2.339   3.633   4.671  2.2460 -1.1612 -2.9122
  242PVA    H7241090   2.513   3.638   4.701  1.6515  0.0122  2.7922
  242PVA    C3741091   2.427   3.449   4.776  1.1078 -0.2317 -0.1844
  242PVA    H7341092   2.359   3.415   4.855 -1.3713 -2.1578 -2.9552
  242PVA    H7441093   2.524   3.436   4.825  1.4006  0.0311 -0.6861
  242PVA    C3841094   2.414   3.344   4.656  0.9426 -0.6663  0.2285
  242PVA    H7541095   2.514   3.307   4.631  0.5729 -2.2358  0.9827
  242PVA    O1341096   2.380   3.409   4.534 -0.0963  0.3449 -0.7355
  242PVA    H7641097   2.460   3.457   4.506 -0.7982  1.2831 -1.2227
  242PVA    C3941098   2.324   3.213   4.670  0.9126  0.4891 -1.1031
  242PVA    H7741099   2.230   3.243   4.718  0.7457 -2.2614  0.4663
  242PVA    H7841100   2.390   3.147   4.726  1.5655  0.7409 -1.5647
  242PVA    C4041101   2.274   3.124   4.555  1.0674 -0.1771 -1.1352
  242PVA    H7941102   2.263   3.182   4.462 -2.3899 -0.2966 -0.9213
  242PVA    H8041103   2.366   3.071   4.527  2.8011  1.7134  0.6642
  242PVA    C4141104   2.151   3.021   4.572 -1.8168 -0.1465 -0.4706
  242PVA    H8141105   2.058   3.060   4.617 -2.5975  2.6377 -4.0201
  242PVA    O1441106   2.221   2.919   4.659 -0.1688  0.3264 -0.1707
  242PVA    H8241107   2.307   2.958   4.682  1.2732 -1.8494 -1.3634
  242PVA    C4241108   2.116   2.931   4.454  0.0901  0.1112  0.5883
  242PVA    H8341109   2.068   3.003   4.386  3.2461 -0.3481 -2.4530
  242PVA    H8441110   2.207   2.894   4.405 -0.3388  0.2753 -0.3597
  242PVA    C4341111   2.014   2.803   4.477  0.8135 -0.8705  1.6394
  242PVA    H8541112   2.064   2.718   4.527  2.3454 -0.3457  1.0624
  242PVA    H8641113   1.947   2.840   4.555 -0.3014  2.2891 -0.6106
  242PVA    C4441114   1.924   2.777   4.347 -1.1304  1.0210  0.4192
  242PVA    H8741115   1.969   2.836   4.267 -0.8632 -1.0326 -1.0265
  242PVA    O1541116   1.798   2.817   4.365 -0.4046 -0.5606  0.2597
  242PVA    H8841117   1.821   2.902   4.407 -1.1471 -1.1307  1.9392
  242PVA    C4541118   1.907   2.629   4.289  0.3276 -0.6775  0.0648
  242PVA    H8941119   1.925   2.549   4.362  1.6409  0.3651  0.9101
  242PVA    H9041120   1.993   2.619   4.221 -0.1360 -0.3717 -0.5816
  242PVA    C4641121   1.790   2.599   4.188 -0.5413 -0.3172 -0.1464
  242PVA    H9141122   1.690   2.581   4.231  0.4774 -2.7255  1.4096
  242PVA    H9241123   1.765   2.684   4.123 -4.5859  0.1104  1.6229
  242PVA    C4741124   1.818   2.501   4.076  0.6741 -0.3451 -0.2387
  242PVA    H9341125   1.851   2.411   4.129 -3.6086 -1.5666  0.7649
  242PVA    O1641126   1.919   2.530   3.986  0.1944  0.0187  0.2627
  242PVA    H9441127   1.917   2.467   3.912  3.4618  0.0040  0.0388
  242PVA    C4841128   1.693   2.431   4.003  0.1104  0.2669  0.4700
  242PVA    H9541129   1.625   2.375   4.068 -0.2514 -1.7627 -1.5484
  242PVA    H9641130   1.651   2.502   3.931  0.8918 -2.1436 -2.5511
  242PVA    C4941131   1.729   2.304   3.917  0.3670  0.2242  0.5436
  242PVA    H9741132   1.770   2.224   3.979  0.3555  0.1018  0.3926
  242PVA    H9841133   1.810   2.333   3.848 -1.3831  3.7923 -0.2665
  242PVA    C5041134   1.615   2.253   3.820 -0.5953 -0.2933 -0.3366
  242PVA    H9941135   1.612   2.336   3.748  2.9242  0.8962  0.7108
  242PVA    O1741136   1.496   2.237   3.889 -0.6168 -0.5475 -0.4390
  242PVA   H10041137   1.517   2.193   3.974 -1.6466  2.9893  1.8619
  242PVA    C5141138   1.649   2.116   3.740 -0.3625 -0.7847 -0.4658
  242PVA   H10141139   1.609   2.039   3.807  2.2002 -2.0544 -0.2816
  242PVA   H10241140   1.758   2.122   3.730  0.1837 -3.6246  2.4713
  243PVA     C141141   7.081   2.201   5.561 -0.6941  0.0915  0.1714
  243PVA     H141142   7.089   2.100   5.604 -2.6651 -0.3859 -0.4956
  243PVA     H241143   7.168   2.267   5.550 -1.8321  1.4801 -0.9477
  243PVA     C241144   7.008   2.270   5.683  1.8738 -0.4064  0.7101
  243PVA     H341145   6.906   2.246   5.651  0.7341 -0.7259  4.1657
  243PVA     O141146   7.007   2.404   5.669 -0.1316 -0.7221 -0.0424
  243PVA     H441147   6.916   2.438   5.678 -0.1465 -0.7538 -0.0722
  243PVA     C341148   7.031   2.227   5.829  1.0053  0.4132  0.3625
  243PVA     H541149   7.129   2.250   5.874  2.0077  0.5234 -1.7850
  243PVA     H641150   7.013   2.119   5.826  0.4469  0.4957  0.6783
  243PVA     C441151   6.927   2.264   5.947  0.4876  0.0604 -0.3626
  243PVA     H741152   6.830   2.214   5.936  2.2308 -2.8606 -6.3859
  243PVA     H841153   6.958   2.237   6.049 -1.0042  0.0585  0.1186
  243PVA     C541154   6.888   2.412   5.960  0.4803 -0.6993  0.0218
  243PVA     H941155   6.977   2.473   5.976  0.3640 -0.5238  0.0034
  243PVA     O241156   6.803   2.445   5.847  0.4922 -0.2836  0.1850
  243PVA    H1041157   6.779   2.539   5.855  1.1220  0.2830 -3.2613
  243PVA     C641158   6.788   2.448   6.082 -0.4153 -0.4869 -0.1333
  243PVA    H1141159   6.740   2.545   6.066 -0.5142 -0.5968 -0.5236
  243PVA    H1241160   6.700   2.384   6.096 -0.7824  0.1742  0.6662
  243PVA     C741161   6.862   2.456   6.222 -0.1617 -0.0311 -0.5795
  243PVA    H1341162   6.964   2.491   6.204  0.9413 -2.0633  1.2897
  243PVA    H1441163   6.880   2.353   6.253 -1.4303 -1.4334 -4.0488
  243PVA     C841164   6.800   2.540   6.333  0.4533 -0.8187 -0.4686
  243PVA    H1541165   6.696   2.506   6.336 -0.6919  2.2591 -1.4513
  243PVA     O341166   6.809   2.683   6.297 -0.7627  1.2566 -0.3628
  243PVA    H1641167   6.857   2.689   6.213 -0.9362  1.1019 -0.4750
  243PVA     C941168   6.861   2.525   6.480  0.4744  0.3036  0.1234
  243PVA    H1741169   6.871   2.420   6.511  1.3866  1.0517  2.5339
  243PVA    H1841170   6.966   2.555   6.470  0.5882 -0.8166 -4.2978
  243PVA    C1041171   6.783   2.585   6.589 -0.3870 -0.3078 -0.0292
  243PVA    H1941172   6.700   2.516   6.609 -2.6366  1.2777 -3.0779
  243PVA    H2041173   6.730   2.675   6.554  4.3641  2.2661 -1.3963
  243PVA    C1141174   6.871   2.615   6.715  0.9662 -0.7079  0.4296
  243PVA    H2141175   6.947   2.536   6.718  0.2500 -1.4014  0.6426
  243PVA     O441176   6.951   2.731   6.712 -0.1264 -0.9165  0.2946
  243PVA    H2241177   6.910   2.798   6.655  1.9070 -3.8011 -5.2428
  243PVA    C1241178   6.803   2.614   6.851 -1.0619 -0.7938 -0.9768
  243PVA    H2341179   6.702   2.570   6.846 -1.5008 -0.2386  1.5033
  243PVA    H2441180   6.760   2.715   6.860 -0.6007 -0.7932  2.2817
  243PVA    C1341181   6.895   2.614   6.980  0.4019 -0.0730 -1.0412
  243PVA    H2541182   6.884   2.710   7.032  5.2041 -0.7152  1.6897
  243PVA    H2641183   7.002   2.620   6.960  0.8177  1.2597  1.3181
  243PVA    C1441184   6.873   2.499   7.075 -0.0372 -0.3473 -0.2674
  243PVA    H2741185   6.768   2.506   7.104  0.8661 -1.6380  3.9321
  243PVA     O541186   6.875   2.382   7.004 -0.0530 -0.0272  0.3306
  243PVA    H2841187   6.962   2.355   6.969  0.8691 -0.7019  2.8908
  243PVA    C1541188   6.978   2.497   7.194 -0.4957  0.4510  0.2264
  243PVA    H2941189   7.001   2.602   7.216 -1.4226  1.4652 -3.1551
  243PVA    H3041190   7.077   2.463   7.162  0.3332 -0.2885  3.2392
  243PVA    C1641191   6.922   2.428   7.321  0.5255 -0.5174  0.1055
  243PVA    H3141192   6.859   2.342   7.294 -3.1134  2.5863 -2.2402
  243PVA    H3241193   6.849   2.498   7.364 -0.1292 -1.2272  0.1701
  243PVA    C1741194   7.032   2.385   7.426 -0.3653 -0.2596  0.2893
  243PVA    H3341195   7.080   2.300   7.376 -0.2334 -0.1098  0.1570
  243PVA     O641196   7.122   2.492   7.441  0.3090 -0.0916 -0.9608
  243PVA    H3441197   7.165   2.452   7.519 -1.1889 -0.9412 -0.5152
  243PVA    C1841198   6.976   2.333   7.564 -0.9712 -0.4584 -0.2355
  243PVA    H3541199   6.891   2.393   7.600 -1.8042 -2.1484  0.7604
  243PVA    H3641200   6.940   2.240   7.518  2.1700 -2.6083  1.3222
  243PVA    C1941201   7.064   2.256   7.669  1.1445 -1.4024  1.2798
  243PVA    H3741202   7.171   2.255   7.646  1.2571  0.7881  1.5304
  243PVA    H3841203   7.046   2.149   7.654 -2.7001 -0.7233 -0.0418
  243PVA    C2041204   7.027   2.304   7.814  0.1479 -0.3613  0.4367
  243PVA    H3941205   7.016   2.413   7.810 -0.1981 -0.2834  2.5026
  243PVA     O741206   6.906   2.248   7.853  0.3647  0.5739  0.5821
  243PVA    H4041207   6.898   2.241   7.950 -1.6463 -3.9126  0.3207
  243PVA    C2141208   7.134   2.273   7.922 -0.0731 -0.5985 -0.9829
  243PVA    H4141209   7.225   2.313   7.876  0.5590  0.9226  1.3693
  243PVA    H4241210   7.148   2.165   7.916 -1.2472 -0.7290 -1.6712
  243PVA    C2241211   7.101   2.345   8.065 -0.6799 -0.2731 -0.4553
  243PVA    H4341212   7.029   2.421   8.033  2.8560  2.2874 -2.9939
  243PVA    H4441213   7.046   2.274   0.032  1.0023  2.4517  4.5154
  243PVA    C2341214   7.230   2.373   0.061  0.8822  0.3437 -0.0408
  243PVA    H4541215   7.299   2.450   0.025  1.2860  0.0787  0.1568
  243PVA     O841216   7.303   2.252   0.071 -0.0553  0.0868 -0.8169
  243PVA    H4641217   7.304   2.211   8.080 -0.6199 -1.0810 -0.3083
  243PVA    C2441218   7.203   2.409   0.207  1.3297 -0.1712  0.3707
  243PVA    H4741219   7.120   2.481   0.208  2.8175  1.8465 -2.9141
  243PVA    H4841220   7.166   2.326   0.268 -0.3379  1.8601  2.2892
  243PVA    C2541221   7.316   2.480   0.279  0.0210  0.0382 -0.0596
  243PVA    H4941222   7.409   2.423   0.264 -0.6585 -0.4288 -3.3842
  243PVA    H5041223   7.315   2.580   0.232 -1.9243  0.3883  0.6594
  243PVA    C2641224   7.293   2.497   0.433 -0.2488 -1.2772 -0.4739
  243PVA    H5141225   7.186   2.512   0.452 -0.4676 -0.2052 -2.3226
  243PVA     O941226   7.327   2.382   0.497  0.4046  0.2454  0.0291
  243PVA    H5241227   7.387   2.406   0.569  0.7330 -0.9309  0.1807
  243PVA    C2741228   7.364   2.611   0.509 -0.0714  0.3538 -0.4835
  243PVA    H5341229   7.359   2.684   0.428  1.5952 -4.2538 -5.2844
  243PVA    H5441230   7.472   2.595   0.518 -0.4510 -2.8299 -0.2028
  243PVA    C2841231   7.301   2.656   0.643 -0.5629  0.1892 -0.1082
  243PVA    H5541232   7.268   2.758   0.619 -0.1384  0.0139 -1.5432
  243PVA    H5641233   7.211   2.594   0.645  0.0846 -1.1167 -3.7292
  243PVA    C2941234   7.373   2.637   0.787  0.7333  0.0043  1.7392
  243PVA    H5741235   7.476   2.622   0.753  0.1611  2.1249 -1.4972
  243PVA    O1041236   7.328   2.512   0.845 -0.3253  0.4212  0.4774
  243PVA    H5841237   7.253   2.532   0.904 -0.8313  4.4183 -1.1795
  243PVA    C3041238   7.352   2.766   0.884 -0.6859 -0.2697 -0.0682
  243PVA    H5941239   7.378   2.863   0.839  0.1271 -0.8948 -0.9646
  243PVA    H6041240   7.249   2.784   0.919 -1.3655  0.0030 -2.0314
  243PVA    C3141241   7.434   2.753   1.012 -0.9876 -0.4039 -0.0918
  243PVA    H6141242   7.536   2.729   0.979 -0.5682  2.7326 -1.4205
  243PVA    H6241243   7.397   2.662   1.062 -1.1803 -1.3896 -1.9548
  243PVA    C3241244   7.434   2.884   1.100 -0.9859 -0.2836  0.1089
  243PVA    H6341245   7.379   2.974   1.068 -3.0676 -0.5374  2.6253
  243PVA    O1141246   7.375   2.849   1.217 -0.4454 -0.1966 -0.3955
  243PVA    H6441247   7.446   2.835   1.282  0.7601 -2.7536 -2.1176
  243PVA    C3341248   7.590   2.917   1.144  0.2988  0.5556  0.2861
  243PVA    H6541249   7.638   2.976   1.064  1.9857  0.8562  1.4735
  243PVA    H6641250   7.637   2.819   1.159 -0.5829 -0.1386 -1.1563
  243PVA    C3441251   7.592   3.011   1.271  1.0103  0.4325  0.0032
  243PVA    H6741252   7.505   3.075   1.253  1.8425  1.6290  0.1457
  243PVA    H6841253   7.581   2.963   1.370  2.7199  2.5878  1.3182
  243PVA    C3541254   7.718   3.096   1.290  1.3104 -0.5103  0.1384
  243PVA    H6941255   7.739   3.132   1.188 -0.6178 -1.4555 -0.6464
  243PVA    O1241256   0.056   3.018   1.351 -0.7517  0.1805  0.8344
  243PVA    H7041257   0.133   3.068   1.383 -2.6017  0.7192  5.2103
  243PVA    C3641258   7.698   3.223   1.378 -0.0938  0.1213  1.0173
  243PVA    H7141259   7.627   3.285   1.321  2.9041  3.5774  0.7152
  243PVA    H7241260   7.642   3.204   1.470 -1.1311  2.3601  0.9161
  243PVA    C3741261   0.066   3.299   1.415  0.0166 -0.3108 -1.0147
  243PVA    H7341262   0.124   3.290   1.323 -3.7220 -0.3426 -3.5974
  243PVA    H7441263   0.109   3.230   1.489 -0.5137  0.2315 -0.1801
  243PVA    C3841264   0.059   3.443   1.475 -0.3467  0.7904 -0.3620
  243PVA    H7541265   0.006   3.502   1.400  0.2244  0.5754 -0.9463
  243PVA    O1341266   7.745   3.435   1.589 -0.5270  0.0014 -0.5024
  243PVA    H7641267   7.652   3.414   1.572 -1.4489 -0.0534  3.5358
  243PVA    C3941268   0.213   3.494   1.510  0.1949 -0.6171 -0.1176
  243PVA    H7741269   0.280   3.446   1.438 -3.6108  0.1338 -4.6448
  243PVA    H7841270   0.231   3.460   1.613  0.7379  0.5667  0.1955
  243PVA    C4041271   0.242   3.647   1.509 -0.9485  0.3045 -0.4459
  243PVA    H7941272   0.174   3.690   1.435 -3.2202 -3.3146 -0.7439
  243PVA    H8041273   0.224   3.698   1.604 -0.0866 -0.1069 -0.0458
  243PVA    C4141274   0.396   3.676   1.501 -0.2090 -0.0027  0.6785
  243PVA    H8141275   0.429   3.602   1.426  2.4705  1.2616  0.5028
  243PVA    O1441276   0.459   3.646   1.622  0.6992 -0.7998 -0.4688
  243PVA    H8241277   0.500   3.730   1.648 -2.5908  0.7033  0.3511
  243PVA    C4241278   0.437   3.817   1.458 -0.2728  0.4438 -0.1185
  243PVA    H8341279   0.400   3.852   1.361  1.1503  1.0541 -0.4656
  243PVA    H8441280   0.407   3.893   1.531  1.6383  1.7155 -0.5866
  243PVA    C4341281   0.594   3.841   1.440 -0.8829  1.0986  0.4818
  243PVA    H8541282   0.640   3.772   1.369 -0.5423  1.3393  0.4670
  243PVA    H8641283   0.626   3.820   1.543 -0.5800 -1.0548 -0.0160
  243PVA    C4441284   0.649   3.976   1.385 -0.6959 -0.3647  0.8463
  243PVA    H8741285   0.615   4.060   1.447 -0.5536 -0.5583  1.1895
  243PVA    O1541286   0.594   3.995   1.253  0.3671  0.0292 -1.5682
  243PVA    H8841287   0.606   3.917   1.196  2.9756  1.2560 -2.8881
  243PVA    C4541288   0.812   3.985   1.367 -0.3956  0.6344 -1.3104
  243PVA    H8941289   0.829   3.964   1.261  0.2624 -1.0757 -0.8990
  243PVA    H9041290   0.861   3.901   1.418  0.6800  1.6834 -0.5484
  243PVA    C4641291   0.883   4.107   1.390  0.2591 -0.5133  0.0383
  243PVA    H9141292   0.822   4.183   1.340  0.7618  1.3518  2.1304
  243PVA    H9241293   0.862   4.144   1.491 -0.7930  1.1167 -0.7386
  243PVA    C4741294   1.028   4.104   1.357 -0.8981 -0.7968 -0.7702
  243PVA    H9341295   1.068   4.007   1.389  2.8912  1.1928  1.0740
  243PVA    O1641296   1.034   4.116   1.214  0.1190  0.7222  0.2873
  243PVA    H9441297   1.010   4.208   1.192 -4.2603 -0.7651 -2.4597
  243PVA    C4841298   1.112   4.216   1.435 -0.0552 -0.6387  0.5785
  243PVA    H9541299   1.123   4.174   1.536 -0.8407  1.0617  1.4134
  243PVA    H9641300   1.061   4.313   1.430  4.4021  2.0963  1.8719
  243PVA    C4941301   1.248   4.235   1.359  0.0174  1.6251 -0.4966
  243PVA    H9741302   1.279   4.130   1.350 -3.3172  0.7032 -5.1620
  243PVA    H9841303   1.228   4.262   1.255 -2.6870 -4.0061 -1.8685
  243PVA    C5041304   1.351   4.339   1.411 -0.4360  0.6969 -0.7609
  243PVA    H9941305   1.367   4.297   1.512  3.0304 -1.5552 -2.0447
  243PVA    O1741306   1.286   4.460   1.443  0.5932  0.9340 -0.3216
  243PVA   H10041307   1.236   4.433   1.522  0.0101  1.7566 -0.4065
  243PVA    C5141308   1.478   4.365   1.336 -0.5117 -0.3422  0.9096
  243PVA   H10141309   1.544   4.320   1.412  0.5674 -3.2243 -1.5459
  243PVA   H10241310   1.469   4.316   1.239  4.2196  2.6408 -1.4518
  244PVA     C141311   2.061   1.283   3.084  0.7338  0.0850 -1.1549
  244PVA     H141312   2.056   1.204   3.160  2.2109  1.3510  0.3571
  244PVA     H241313   2.106   1.370   3.134  3.2312 -0.6442 -1.9721
  244PVA     C241314   2.153   1.207   2.978  0.0569 -0.2647 -0.0826
  244PVA     H341315   2.254   1.198   3.019 -0.5187 -2.5809  1.0067
  244PVA     O141316   2.163   1.288   2.857 -0.7214 -0.0170  0.2194
  244PVA     H441317   2.194   1.376   2.885 -0.3536 -0.0503 -0.0702
  244PVA     C341318   2.123   1.063   2.935 -0.1848  0.6651 -0.1890
  244PVA     H541319   2.058   1.072   2.847 -1.8309 -3.0225  0.4497
  244PVA     H641320   2.046   1.010   2.992 -2.3120 -0.4232 -3.7490
  244PVA     C441321   2.228   0.964   2.882 -0.6099  0.0772 -0.1170
  244PVA     H741322   2.310   1.024   2.841  0.5141 -0.8393  0.7380
  244PVA     H841323   2.280   0.923   2.970 -1.9784 -1.9099 -0.1752
  244PVA     C541324   2.194   0.883   2.758 -0.5395 -0.2979 -0.9625
  244PVA     H941325   2.176   0.955   2.676 -1.7990 -1.1423 -1.4565
  244PVA     O241326   2.306   0.805   2.727 -0.5118  0.7140  0.0203
  244PVA    H1041327   2.271   0.743   2.662  1.4859  1.5517 -1.9802
  244PVA     C641328   2.059   0.803   2.754  0.0803 -0.6224 -0.5242
  244PVA    H1141329   2.062   0.714   2.820  1.2905  0.3950  0.8719
  244PVA    H1241330   1.971   0.860   2.784 -1.0516 -3.3550  1.8967
  244PVA     C741331   2.004   0.765   2.619  0.7931 -0.1730  0.7338
  244PVA    H1341332   2.082   0.738   2.546  1.4756 -2.5200  2.1974
  244PVA    H1441333   1.948   0.849   2.577 -2.5892 -2.3885  0.4443
  244PVA     C841334   1.901   0.651   2.608  0.0473  0.0094 -1.1487
  244PVA    H1541335   1.822   0.691   2.672  1.1729  1.1550 -0.4114
  244PVA     O341336   1.969   0.539   2.664 -1.0814 -0.0926  1.2966
  244PVA    H1641337   2.052   0.526   2.615 -2.6337  4.5781 -3.4697
  244PVA     C941338   1.842   0.631   2.466 -0.3989 -0.4356 -0.0739
  244PVA    H1741339   1.933   0.623   2.406 -1.3198 -0.6816 -1.4815
  244PVA    H1841340   1.797   0.720   2.420  1.9045 -0.3580 -2.4377
  244PVA    C1041341   1.741   0.508   2.435 -0.4921 -0.5611  0.5543
  244PVA    H1941342   1.735   0.473   2.331 -4.3085 -1.3887  0.9040
  244PVA    H2041343   1.795   0.424   2.481  0.0996  0.2293  1.3337
  244PVA    C1141344   1.602   0.521   2.494 -0.4223  0.5396 -0.0380
  244PVA    H2141345   1.582   0.616   2.443 -1.9320 -0.5026 -1.5021
  244PVA     O441346   1.599   0.552   2.624  0.7930  0.3661 -1.0923
  244PVA    H2241347   1.642   0.486   2.680 -2.7396 -0.9853  0.3319
  244PVA    C1241348   1.492   0.411   2.459 -0.1117 -0.4249  0.0367
  244PVA    H2341349   1.414   0.475   2.414  0.7611  0.2800 -0.5066
  244PVA    H2441350   1.517   0.350   2.372  1.1118 -3.0443  2.0888
  244PVA    C1341351   1.396   0.335   2.560 -0.7050 -0.1832 -0.9666
  244PVA    H2541352   1.351   0.402   2.635 -1.0913 -0.3551 -1.0425
  244PVA    H2641353   1.463   0.276   2.625 -3.4773 -1.7782  0.6328
  244PVA    C1441354   1.290   0.243   2.499  0.5339  0.8265 -0.5570
  244PVA    H2741355   1.348   0.191   2.422  0.8705  0.0047  0.2187
  244PVA     O541356   1.189   0.318   2.450  0.1359  0.1416 -0.4184
  244PVA    H2841357   1.111   0.332   2.507  1.1873 -1.6421  1.6379
  244PVA    C1541358   1.219   0.123   2.578 -0.4031  0.5992 -0.7410
  244PVA    H2941359   1.143   0.153   2.650  0.6562 -0.0617  0.7084
  244PVA    H3041360   1.293   0.062   2.632  1.4918 -0.4496 -4.1919
  244PVA    C1641361   1.144   0.034   2.470  0.2765 -0.3062 -0.9169
  244PVA    H3141362   1.073   0.100   2.418  1.3154 -0.2105 -2.2567
  244PVA    H3241363   1.220   7.676   2.403  1.5757  1.7069 -0.8169
  244PVA    C1741364   1.051   7.613   2.549  0.4005  0.9738  0.5167
  244PVA    H3341365   0.976   7.665   2.610  1.0139  0.0290  2.1161
  244PVA     O641366   1.135   7.536   2.637 -0.0922 -0.3126  0.1693
  244PVA    H3441367   1.075   7.470   2.676  0.5651 -0.2725  1.2740
  244PVA    C1841368   0.975   7.526   2.441  0.9110 -0.1525 -0.2650
  244PVA    H3541369   0.874   7.497   2.472  1.3976 -2.4262 -0.6437
  244PVA    H3641370   0.951   7.594   2.358 -1.6244 -0.6225  0.0006
  244PVA    C1941371   1.042   7.411   2.361  0.5243  0.3385  0.7067
  244PVA    H3741372   1.080   7.334   2.429 -2.9598 -1.8662  0.4427
  244PVA    H3841373   1.130   7.438   2.303  0.4033 -2.5391 -1.0229
  244PVA    C2041374   0.955   7.325   2.261  1.0873  0.2901 -2.1520
  244PVA    H3941375   0.943   7.392   2.175  0.8577  0.3284 -2.0913
  244PVA     O741376   0.826   7.289   2.312 -0.1894  0.4974 -0.0733
  244PVA    H4041377   0.769   7.357   2.271  3.5389  0.7475 -6.2039
  244PVA    C2141378   1.021   7.193   2.196  1.0124  0.1065  0.7426
  244PVA    H4141379   1.030   7.119   2.277  0.3035 -2.4636 -1.3858
  244PVA    H4241380   1.109   7.247   2.160 -0.4032 -0.4193 -4.3133
  244PVA    C2241381   0.955   7.106   2.085  0.0574 -0.0325  0.6540
  244PVA    H4341382   0.880   7.039   2.128  0.2326 -0.2731  0.5849
  244PVA    H4441383   0.896   7.168   2.015  0.0331 -2.2567 -1.4349
  244PVA    C2341384   1.041   7.018   1.994  0.2857  0.4411  1.1619
  244PVA    H4541385   1.072   6.931   2.054 -1.8677 -0.3880  1.1642
  244PVA     O841386   1.161   7.073   1.954  0.6395 -0.5145  0.6654
  244PVA    H4641387   1.237   7.013   1.955  2.1833  1.3200 -0.0892
  244PVA    C2441388   0.968   6.956   1.861 -0.9868  0.4673 -0.8197
  244PVA    H4741389   0.915   7.025   1.794 -0.7596 -0.7762 -2.3525
  244PVA    H4841390   0.889   6.887   1.892 -1.2889  2.4400  3.5134
  244PVA    C2541391   1.070   6.872   1.771 -0.0805  0.1412 -0.2628
  244PVA    H4941392   0.995   6.816   1.713  0.2352 -2.5993  1.7883
  244PVA    H5041393   1.120   6.939   1.700 -0.8920 -0.5955 -1.5713
  244PVA    C2641394   1.155   6.769   1.855 -0.1389  0.5087 -0.4304
  244PVA    H5141395   1.091   6.740   1.939 -0.4328  2.4929  0.0893
  244PVA     O941396   1.260   6.825   1.911 -0.3697 -0.0731 -0.2489
  244PVA    H5241397   1.331   6.811   1.846 -1.1419 -1.3360 -0.8660
  244PVA    C2741398   1.195   6.647   1.770 -0.0405 -0.9604 -0.0468
  244PVA    H5341399   1.232   6.684   1.674  1.5780  3.6331  2.0760
  244PVA    H5441400   1.094   6.616   1.740  0.1337 -0.7339 -0.8642
  244PVA    C2841401   1.279   6.533   1.835 -0.1131  0.1668  0.5471
  244PVA    H5541402   1.342   6.561   1.920 -0.1272  0.3833  0.4862
  244PVA    H5641403   1.188   6.491   1.879 -2.4525  2.6338 -1.5553
  244PVA    C2941404   1.371   6.441   1.752  0.7626  0.3237 -0.4779
  244PVA    H5741405   1.456   6.501   1.717  2.5095 -0.0345  2.7232
  244PVA    O1041406   1.426   6.350   1.847  0.5461  0.2742 -0.1315
  244PVA    H5841407   1.345   6.305   1.876 -0.5563  1.6888 -0.9473
  244PVA    C3041408   1.300   6.377   1.633  0.3678 -0.3625 -0.7067
  244PVA    H5941409   1.208   6.333   1.673  1.1480  0.2548  1.9246
  244PVA    H6041410   1.274   6.454   1.559 -0.6496 -0.2344 -0.2252
  244PVA    C3141411   1.396   6.282   1.551 -0.4445  0.4450  0.4452
  244PVA    H6141412   1.454   6.218   1.619 -0.8175  0.4835  0.8057
  244PVA    H6241413   1.476   6.341   1.504 -0.5356 -1.5486 -2.4469
  244PVA    C3241414   1.316   6.200   1.446 -0.8137 -0.4695 -0.9106
  244PVA    H6341415   1.396   6.164   1.380  1.1334 -0.9911  1.5891
  244PVA    O1141416   1.216   6.272   1.381  0.3669  0.3768  0.3948
  244PVA    H6441417   1.241   6.329   1.307 -3.0711 -1.5504 -2.6125
  244PVA    C3341418   1.258   6.068   1.506  0.6161 -0.0607  0.0429
  244PVA    H6541419   1.345   6.008   1.534  1.0830  0.8794  0.6319
  244PVA    H6641420   1.211   6.095   1.601 -3.5693 -2.0875 -1.1855
  244PVA    C3441421   1.166   5.997   1.398  0.0643 -0.0016 -0.0505
  244PVA    H6741422   1.109   6.063   1.332  1.5772  1.0850 -0.3197
  244PVA    H6841423   1.224   5.935   1.328 -1.2070 -2.7716  1.1901
  244PVA    C3541424   1.065   5.893   1.460  0.2186 -0.7813  1.5595
  244PVA    H6941425   1.057   5.904   1.569 -2.6034 -0.3256  1.3661
  244PVA    O1241426   0.934   5.932   1.425 -0.5681  0.4249  0.6089
  244PVA    H7041427   0.883   5.852   1.446  3.4455 -4.0623 -3.7820
  244PVA    C3641428   1.098   5.745   1.421 -0.4275 -0.4757 -1.2808
  244PVA    H7141429   1.142   5.733   1.321  3.6395 -0.3670  0.3052
  244PVA    H7241430   1.175   5.716   1.494 -3.3352  2.0714  3.2581
  244PVA    C3741431   0.989   5.636   1.443 -0.3539 -1.1330  0.1287
  244PVA    H7341432   0.945   5.665   1.539 -2.5641 -2.5779 -0.3836
  244PVA    H7441433   0.911   5.643   1.367 -0.9380  0.4647  0.8357
  244PVA    C3841434   1.040   5.499   1.455 -0.0587  0.1666 -0.1790
  244PVA    H7541435   1.112   5.498   1.537  3.1762  3.0168 -2.6798
  244PVA    O1341436   1.087   5.465   1.330 -0.5031  0.0813  1.0459
  244PVA    H7641437   1.004   5.459   1.279 -0.2054 -0.7127  0.6388
  244PVA    C3941438   0.941   5.389   1.500  0.5407  1.1968 -0.2750
  244PVA    H7741439   0.861   5.362   1.431 -2.7394  3.1705  2.4017
  244PVA    H7841440   0.877   5.436   1.576 -0.0265 -1.2471  0.8723
  244PVA    C4041441   1.000   5.269   1.575 -0.1725  1.3866 -0.7190
  244PVA    H7941442   1.090   5.288   1.635 -1.4226 -0.9171  2.1205
  244PVA    H8041443   0.941   5.239   1.662 -1.1307  0.5264 -1.6385
  244PVA    C4141444   1.057   5.144   1.510  0.7239  0.3800 -0.9741
  244PVA    H8141445   1.113   5.096   1.591  2.4377  2.6866 -0.6555
  244PVA    O1441446   1.146   5.195   1.408  0.5744  0.6580 -0.0822
  244PVA    H8241447   1.127   5.279   1.364 -3.6586  0.7348  1.4193
  244PVA    C4241448   0.946   5.057   1.443  1.0765  0.5035 -0.3452
  244PVA    H8341449   0.847   5.104   1.446  1.2315  0.7773  1.3653
  244PVA    H8441450   0.972   5.060   1.336  2.8465  3.4961  0.0792
  244PVA    C4341451   0.923   4.908   1.496  0.3176  0.6988 -1.2973
  244PVA    H8541452   1.022   4.870   1.523 -0.9216 -2.1402 -0.3590
  244PVA    H8641453   0.873   4.931   1.592  4.3925  4.5452  0.2745
  244PVA    C4441454   0.852   4.808   1.402 -0.3028 -0.5062  0.3287
  244PVA    H8741455   0.846   4.865   1.308 -0.7272  0.1869  0.7643
  244PVA    O1541456   0.720   4.758   1.443 -0.0662 -0.2825 -0.2317
  244PVA    H8841457   0.655   4.830   1.433 -1.1261 -1.3165 -1.1745
  244PVA    C4541458   0.938   4.691   1.348  0.0011 -0.1455 -0.5552
  244PVA    H8941459   0.930   4.631   1.440  3.5545  2.0567  1.4245
  244PVA    H9041460   1.039   4.726   1.321 -1.3673  2.0247 -3.3319
  244PVA    C4641461   0.895   4.609   1.228  0.7939  0.0293 -0.0783
  244PVA    H9141462   0.875   4.673   1.141 -1.7860 -0.4644  0.0537
  244PVA    H9241463   0.799   4.568   1.264  0.8040 -0.3883 -0.5069
  244PVA    C4741464   0.996   4.497   1.205 -0.3471  0.5552  0.3405
  244PVA    H9341465   1.072   4.494   1.284  0.1395  1.0858 -0.0903
  244PVA    O1641466   0.929   4.369   1.202 -0.0603  1.0353 -0.0908
  244PVA    H9441467   0.850   4.371   1.258  0.8708  0.7378  1.2686
  244PVA    C4841468   1.070   4.508   1.070  0.7838 -0.2113 -1.1827
  244PVA    H9541469   1.015   4.453   0.993 -0.9040  2.9362 -2.4145
  244PVA    H9641470   1.064   4.615   1.046 -0.4647  0.7314  2.5869
  244PVA    C4941471   1.207   4.441   1.076  1.2796 -0.0175  0.6020
  244PVA    H9741472   1.245   4.482   1.171 -2.2550  3.9603  0.5738
  244PVA    H9841473   1.197   4.332   1.070 -5.7208  0.0004  3.1717
  244PVA    C5041474   1.309   4.495   0.960  0.6609 -0.7281 -0.8647
  244PVA    H9941475   1.280   4.591   0.915  1.3040 -1.6499 -3.4073
  244PVA    O1741476   1.303   4.387   0.858  0.3135  0.5619  0.5734
  244PVA   H10041477   1.219   4.401   0.811  2.0461 -1.2469 -3.5935
  244PVA    C5141478   1.460   4.495   0.997  0.8304 -0.0498 -0.8505
  244PVA   H10141479   1.520   4.489   0.905 -1.8557  3.4688 -3.1311
  244PVA   H10241480   1.477   4.399   1.047  1.5567  1.0804  1.2194
  245PVA     C141481   1.816   1.058   3.162  0.2252  0.0617  0.4972
  245PVA     H141482   1.923   1.080   3.158  0.6526 -2.0027 -1.4916
  245PVA     H241483   1.799   1.050   3.270 -1.2128  0.2118  0.3009
  245PVA     C241484   1.794   0.927   3.080 -0.6934 -0.0717 -1.0793
  245PVA     H341485   1.809   0.930   2.971 -0.5882 -3.6752 -1.2981
  245PVA     O141486   1.658   0.899   3.104  0.3232 -0.4905  0.2443
  245PVA     H441487   1.631   0.848   3.026 -2.0615 -3.1290  2.5752
  245PVA     C341488   1.881   0.807   3.108  0.7560 -0.2832  0.4387
  245PVA     H541489   1.883   0.805   3.218 -1.5102 -3.3368  0.5451
  245PVA     H641490   1.986   0.827   3.083  1.7915 -3.6713  1.4253
  245PVA     C441491   1.847   0.656   3.065 -0.0547 -0.1226 -0.4847
  245PVA     H741492   1.742   0.644   3.095 -0.1448 -1.6325 -1.3126
  245PVA     H841493   1.854   0.662   2.956  0.2549  0.6096 -0.4319
  245PVA     C541494   1.951   0.553   3.128 -0.0001 -0.2577 -0.1694
  245PVA     H941495   2.041   0.615   3.128  0.1648 -0.1963 -4.1388
  245PVA     O241496   1.904   0.525   3.257 -1.4502  0.3480  0.8145
  245PVA    H1041497   1.890   0.615   3.292 -0.5231  1.7251 -2.0437
  245PVA     C641498   2.013   0.426   3.053 -0.0031  0.4763  1.3664
  245PVA    H1141499   1.962   0.420   2.957 -3.0480  3.9323  2.5407
  245PVA    H1241500   2.097   0.471   2.999 -1.8998  0.7839 -1.5120
  245PVA     C741501   2.029   0.288   3.126 -0.0118  0.2146 -1.2041
  245PVA    H1341502   1.936   0.238   3.155  2.1293 -2.0946  2.5608
  245PVA    H1441503   2.082   0.305   3.220  0.0506 -5.0972  0.0457
  245PVA     C841504   2.105   0.167   3.055  0.6332  0.4048  0.5656
  245PVA    H1541505   2.176   0.123   3.126  2.9800  3.2788  0.2139
  245PVA     O341506   2.177   0.220   2.958  0.6629  0.0067  0.4456
  245PVA    H1641507   2.160   0.313   2.980 -3.2480 -0.3617 -0.3875
  245PVA     C941508   2.036   0.042   3.000  0.6341 -0.1159  0.2618
  245PVA    H1741509   1.962   0.071   2.925 -1.7836  2.0112  3.2181
  245PVA    H1841510   1.990   7.684   3.090 -0.7385  3.8643  1.6412
  245PVA    C1041511   2.136   7.618   2.941 -0.2961  0.7830 -0.0799
  245PVA    H1941512   2.187   7.660   2.853  4.9517  3.4800  3.7009
  245PVA    H2041513   2.214   7.588   3.011 -0.1605  2.5762  0.5745
  245PVA    C1141514   2.082   7.473   2.900  0.6824 -0.6365 -0.4419
  245PVA    H2141515   2.113   7.391   2.966 -2.0033 -1.3344  0.0922
  245PVA     O441516   1.940   7.468   2.909 -0.6231  0.1678 -0.3445
  245PVA    H2241517   1.906   7.378   2.918 -1.4568  0.4055 -1.0623
  245PVA    C1241518   2.136   7.398   2.780  0.3835  0.5112  0.2081
  245PVA    H2341519   2.240   7.381   2.810 -0.5048 -0.9820  2.7830
  245PVA    H2441520   2.162   7.471   2.702  1.4610 -0.3207 -0.2349
  245PVA    C1341521   2.080   7.257   2.734  1.0017 -0.2468 -0.0027
  245PVA    H2541522   2.120   7.171   2.789  0.7957 -0.8997 -0.8540
  245PVA    H2641523   1.983   7.245   2.785 -0.7830  3.3368 -2.1400
  245PVA    C1441524   2.077   7.220   2.582 -0.5892  0.2807 -0.5677
  245PVA    H2741525   2.129   7.304   2.535  1.3227 -0.6996 -0.3359
  245PVA     O541526   1.941   7.211   2.527  0.3113  0.5027 -0.0623
  245PVA    H2841527   1.905   7.146   2.590  3.7990  0.0382  1.6816
  245PVA    C1541528   2.145   7.082   2.548  0.8012 -0.7156 -0.3653
  245PVA    H2941529   2.113   6.998   2.611  1.2362  0.0525  0.9188
  245PVA    H3041530   2.247   7.098   2.586  0.4242 -0.7417  0.7077
  245PVA    C1641531   2.138   7.048   2.394 -0.0923  0.8372  0.5193
  245PVA    H3141532   2.048   6.990   2.372  1.6380 -1.7105 -0.3002
  245PVA    H3241533   2.129   7.136   2.330  2.9449  0.1266 -1.0774
  245PVA    C1741534   2.240   6.945   2.331 -0.7278  0.2302 -0.5116
  245PVA    H3341535   2.170   6.869   2.295  0.3235  0.8577 -4.2984
  245PVA     O641536   2.305   6.871   2.424 -0.1942  0.5408 -0.5214
  245PVA    H3441537   2.381   6.824   2.387 -0.1553 -1.6996  2.1071
  245PVA    C1841538   2.347   6.977   2.228 -0.5292  0.6390 -0.0133
  245PVA    H3541539   2.433   7.020   2.281 -1.0797  2.2751 -0.3948
  245PVA    H3641540   2.321   7.067   2.171 -2.3619 -0.1833 -0.5291
  245PVA    C1941541   2.388   6.872   2.102 -0.1503  0.3933 -0.8135
  245PVA    H3741542   2.311   6.877   2.025  1.0653 -1.3163 -2.2337
  245PVA    H3841543   2.390   6.767   2.137 -2.0669  0.7039  0.3790
  245PVA    C2041544   2.539   6.893   2.044  0.6187 -0.6593 -1.0330
  245PVA    H3941545   2.599   6.829   2.109  1.5703  3.2486  2.3664
  245PVA     O741546   2.604   7.021   2.070 -0.8159 -0.5922  0.6785
  245PVA    H4041547   2.616   7.050   1.978 -3.9470 -0.1505  0.3052
  245PVA    C2141548   2.581   6.833   1.905 -0.1405  0.2997  0.4685
  245PVA    H4141549   2.508   6.754   1.881  1.0429 -0.3560 -1.1260
  245PVA    H4241550   2.552   6.900   1.823 -0.7829 -0.1581  0.3126
  245PVA    C2241551   2.731   6.811   1.873  0.1637 -0.5093  0.6603
  245PVA    H4341552   2.788   6.905   1.880  2.0497 -1.3065 -2.2998
  245PVA    H4441553   2.778   6.725   1.922  0.1945 -1.3233 -0.7585
  245PVA    C2341554   2.772   6.791   1.722  0.6006  0.0051 -0.4187
  245PVA    H4541555   2.715   6.698   1.713  0.9048 -0.4744  1.9107
  245PVA     O841556   2.713   6.897   1.647 -0.1172  0.4690 -0.8546
  245PVA    H4641557   2.731   6.862   1.558  0.7273  1.4976 -1.1106
  245PVA    C2441558   2.924   6.764   1.687 -1.2118  0.2191  0.8345
  245PVA    H4741559   2.989   6.842   1.729  1.7388  0.0716 -2.9177
  245PVA    H4841560   2.954   6.700   1.771  1.3665 -1.4215 -1.2066
  245PVA    C2541561   2.983   6.721   1.536  0.2026  0.7869  0.3016
  245PVA    H4941562   3.093   6.722   1.541  0.2000 -0.9352  2.3292
  245PVA    H5041563   2.950   6.802   1.471 -3.0297  0.2982  1.1512
  245PVA    C2641564   2.967   6.582   1.462 -0.3137 -0.3211  0.7242
  245PVA    H5141565   2.860   6.559   1.459 -0.2953 -0.4180  0.8002
  245PVA     O941566   3.023   6.484   1.543  0.1511 -0.9636  0.1648
  245PVA    H5241567   3.003   6.394   1.512  2.2163 -1.5002  0.2168
  245PVA    C2741568   3.030   6.581   1.321  0.3220 -0.3988  0.3357
  245PVA    H5341569   3.139   6.575   1.337  0.4470  2.1042  0.8663
  245PVA    H5441570   3.002   6.665   1.256 -0.0872 -2.1498 -1.8754
  245PVA    C2841571   2.992   6.458   1.227 -1.0849  0.6091  0.0911
  245PVA    H5541572   3.028   6.371   1.284  3.5581 -0.4986 -3.8345
  245PVA    H5641573   2.884   6.440   1.233 -0.9128 -0.3872  0.4222
  245PVA    C2941574   3.071   6.443   1.081 -0.1943 -0.1985 -0.0256
  245PVA    H5741575   3.122   6.539   1.064 -0.4450  0.3285  2.0314
  245PVA    O1041576   3.163   6.333   1.086 -0.0134  0.0925 -0.5069
  245PVA    H5841577   3.249   6.366   1.117 -0.4612 -0.5232  1.5471
  245PVA    C3041578   2.970   6.398   0.966 -0.1590  1.0955 -0.1642
  245PVA    H5941579   2.937   6.295   0.982 -2.6610  1.5033 -2.1808
  245PVA    H6041580   2.872   6.445   0.976  0.2099  1.7670  0.3640
  245PVA    C3141581   3.018   6.418   0.808 -0.8828  0.7400 -0.4570
  245PVA    H6141582   3.071   6.514   0.809  1.0365 -0.2858  0.0987
  245PVA    H6241583   3.094   6.340   0.800 -1.0346  0.5347  0.0567
  245PVA    C3241584   2.896   6.403   0.709  0.1382 -0.3262 -0.5121
  245PVA    H6341585   2.839   6.495   0.725  1.5491  1.0082 -2.6677
  245PVA    O1141586   2.799   6.308   0.758 -0.0633 -0.8222  0.6103
  245PVA    H6441587   2.822   6.220   0.724  0.5891  0.3969 -2.4794
  245PVA    C3341588   2.912   6.395   0.556  0.3784  0.3659  0.2565
  245PVA    H6541589   2.857   6.312   0.512  0.6349  0.8218 -0.9952
  245PVA    H6641590   3.016   6.359   0.551  0.9847  1.8550  1.2891
  245PVA    C3441591   2.924   6.537   0.469 -0.4513 -0.2719 -0.4755
  245PVA    H6741592   2.859   6.604   0.527 -0.1966  0.3954 -0.9560
  245PVA    H6841593   3.027   6.574   0.468 -1.0716  1.5456 -1.0727
  245PVA    C3541594   2.886   6.569   0.325  0.4868  1.3321  0.5463
  245PVA    H6941595   2.937   6.498   0.258 -1.8443 -0.4727  0.5714
  245PVA    O1241596   2.755   6.533   0.322  0.2194 -1.6297 -0.8953
  245PVA    H7041597   2.746   6.442   0.287  2.0204 -2.0347 -0.4196
  245PVA    C3641598   2.894   6.722   0.269 -0.4772  0.2495  0.1197
  245PVA    H7141599   2.825   6.779   0.333 -2.4573  0.5566 -2.1255
  245PVA    H7241600   2.998   6.758   0.271  1.2817 -4.0788 -1.5566
  245PVA    C3741601   2.846   6.744   0.108 -0.5330 -0.2217 -0.9232
  245PVA    H7341602   2.758   6.685   0.080  0.1280 -0.3592 -2.8728
  245PVA    H7441603   2.927   6.706   0.044 -1.2513  5.0500 -5.7239
  245PVA    C3841604   2.834   6.897   0.053 -0.1682 -0.8334  0.4039
  245PVA    H7541605   2.748   6.927   0.113  1.6906 -3.2216  4.7075
  245PVA    O1341606   2.936   6.984   0.099  0.9041 -0.1882  0.3910
  245PVA    H7641607   2.947   6.977   0.195 -0.0775 -3.9502  0.3851
  245PVA    C3941608   2.819   6.945   7.997  0.1184  1.3539 -0.7629
  245PVA    H7741609   2.761   6.866   7.947 -1.9499  0.2368  3.0027
  245PVA    H7841610   2.913   6.934   7.943  0.8983 -1.6528  1.0092
  245PVA    C4041611   2.761   7.089   7.970 -0.5331  0.2131  0.8067
  245PVA    H7941612   2.714   7.127   8.062 -2.5450  2.6227 -1.0565
  245PVA    H8041613   2.842   7.163   7.970  0.7195 -1.0640 -1.4217
  245PVA    C4141614   2.673   7.108   7.835  0.8758  0.3159 -0.9903
  245PVA    H8141615   2.731   7.062   7.753 -0.4192 -0.6328 -1.4017
  245PVA    O1441616   2.553   7.047   7.844  0.1032  0.8122  0.3193
  245PVA    H8241617   2.509   7.094   7.916 -2.0071  0.1959 -0.4991
  245PVA    C4241618   2.646   7.255   7.789  0.5547 -0.7719  0.0310
  245PVA    H8341619   2.614   7.320   7.872 -1.5566 -4.8235  2.7616
  245PVA    H8441620   2.739   7.307   7.767  0.0224 -0.1790 -0.8806
  245PVA    C4341621   2.541   7.284   7.673  1.2286  0.3224  0.3182
  245PVA    H8541622   2.447   7.228   7.678  0.1124  1.9727 -1.2507
  245PVA    H8641623   2.594   7.223   7.598  2.4753  0.3724  1.1354
  245PVA    C4441624   2.530   7.431   7.596  0.5777  0.2773  0.3491
  245PVA    H8741625   2.610   7.429   7.520  0.8718 -2.6285  0.6022
  245PVA    O1541626   2.532   7.533   7.690  0.4165 -0.3117 -0.0298
  245PVA    H8841627   2.566   7.497   7.774 -1.7122 -0.8593  0.6618
  245PVA    C4541628   2.408   7.460   7.497  0.7416 -0.4153 -0.7021
  245PVA    H8941629   2.314   7.448   7.552  2.5052 -0.1290  2.6091
  245PVA    H9041630   2.398   7.365   7.442  2.4573 -1.5652  0.8280
  245PVA    C4641631   2.407   7.587   7.395  0.3924 -0.5459 -0.8527
  245PVA    H9141632   2.463   7.653   7.462  2.3165  0.1259 -2.9885
  245PVA    H9241633   2.485   7.578   7.318 -1.1166  0.6645 -2.6107
  245PVA    C4741634   2.272   7.660   7.332  0.2977 -0.2133  0.0294
  245PVA    H9341635   2.245   7.589   7.253  2.4670  1.1547 -2.0750
  245PVA    O1641636   2.159   7.682   7.411 -0.7129 -0.4646 -0.3524
  245PVA    H9441637   2.094   0.026   7.344  1.2173  2.2635 -1.2615
  245PVA    C4841638   2.298   0.113   7.253  0.3473  0.7115  0.4915
  245PVA    H9541639   2.397   0.139   7.293  1.9742 -2.1829 -1.3401
  245PVA    H9641640   2.315   0.100   7.146 -3.4131  0.3246 -0.1842
  245PVA    C4941641   2.196   0.239   7.242 -0.3448  1.8625 -0.5576
  245PVA    H9741642   2.189   0.282   7.343  0.1600 -2.0373  1.3188
  245PVA    H9841643   2.100   0.197   7.210 -0.7091  2.5424 -0.3899
  245PVA    C5041644   2.250   0.348   7.153  0.1369 -0.1574  0.7324
  245PVA    H9941645   2.360   0.347   7.148  0.4697  1.1269  4.5211
  245PVA    O1741646   2.226   0.310   7.020 -0.1973 -1.2699 -0.6315
  245PVA   H10041647   2.297   0.244   7.014  1.7503  0.6446 -0.0768
  245PVA    C5141648   2.227   0.507   7.188  0.3605 -0.6185 -1.4643
  245PVA   H10141649   2.256   0.510   7.293  0.2225  3.1623 -1.3873
  245PVA   H10241650   2.302   0.563   7.131 -0.2594  0.6981 -1.0352
  246PVA     C141651   2.186   5.144   0.838 -0.2791 -0.6357  0.6307
  246PVA     H141652   2.223   5.103   0.743 -5.3615 -0.5249 -1.7157
  246PVA     H241653   2.241   5.235   0.862  1.9846 -1.0539 -2.3172
  246PVA     C241654   2.033   5.160   0.816  0.4004  0.0117 -0.1436
  246PVA     H341655   1.993   5.192   0.913 -1.2891 -1.6276 -0.2435
  246PVA     O141656   1.974   5.033   0.791 -0.1303  0.5743 -0.2276
  246PVA     H441657   2.023   4.973   0.850  2.5437  1.4398 -1.4298
  246PVA     C341658   1.999   5.262   0.704  0.2503  0.4536  0.1416
  246PVA     H541659   2.050   5.358   0.717  0.7707 -0.1678  4.0247
  246PVA     H641660   2.037   5.219   0.611  1.8992  1.5802  0.2415
  246PVA     C441661   1.843   5.308   0.687 -0.3711  0.4595 -1.3541
  246PVA     H741662   1.812   5.368   0.773 -0.2347  1.8415 -2.2413
  246PVA     H841663   1.793   5.211   0.698 -1.3853  1.2595  2.9883
  246PVA     C541664   1.799   5.387   0.559  0.5509 -1.0418  0.2636
  246PVA     H941665   1.827   5.493   0.561  0.0014 -0.8541 -1.1006
  246PVA     O241666   1.840   5.319   0.451  0.0436  0.7099  0.2283
  246PVA    H1041667   1.782   5.241   0.459  0.1572  0.6863  0.9058
  246PVA     C641668   1.638   5.395   0.535 -0.0328 -0.3031  0.0118
  246PVA    H1141669   1.592   5.295   0.533  0.3531 -0.5267  1.5442
  246PVA    H1241670   1.590   5.438   0.623  3.2500  0.1937  1.7251
  246PVA     C741671   1.598   5.478   0.408 -0.2792  0.3549  0.6288
  246PVA    H1341672   1.630   5.426   0.316  0.1572 -0.9157  1.4685
  246PVA    H1441673   1.651   5.572   0.425 -2.5371  1.6195  1.0366
  246PVA     C841674   1.446   5.497   0.400 -0.1906 -0.2352  0.4126
  246PVA    H1541675   1.425   5.568   0.481  4.0150 -0.1170  1.6422
  246PVA     O341676   1.365   5.384   0.427 -0.1489 -0.7027  0.5100
  246PVA    H1641677   1.413   5.299   0.422 -1.9865 -1.9993  2.7192
  246PVA     C941678   1.412   5.551   0.265  1.2231 -0.2245  1.0002
  246PVA    H1741679   1.437   5.476   0.189  0.4645  4.0982 -4.1021
  246PVA    H1841680   1.459   5.649   0.248 -0.7786  0.3563 -1.9067
  246PVA    C1041681   1.259   5.575   0.242  0.4399  1.1190 -0.1908
  246PVA    H1941682   1.216   5.479   0.213  2.2994  0.3086 -0.4042
  246PVA    H2041683   1.217   5.594   0.342 -0.0776 -0.5406 -0.0632
  246PVA    C1141684   1.216   5.674   0.131 -0.3182  1.0630  0.5521
  246PVA    H2141685   1.248   5.773   0.168  0.9614  1.2022 -0.8094
  246PVA     O441686   1.281   5.631   0.009 -0.0452  0.2885 -0.0071
  246PVA    H2241687   1.375   5.653   0.020 -0.2702  0.9161  0.8017
  246PVA    C1241688   1.064   5.677   0.102  0.0024 -0.6748 -0.0113
  246PVA    H2341689   1.031   5.594   0.038  2.0834 -1.4833 -0.1387
  246PVA    H2441690   1.016   5.659   0.199 -0.4952 -0.6065 -0.2438
  246PVA    C1341691   1.021   5.807   0.024  0.6180  1.1231  0.0485
  246PVA    H2541692   1.081   5.802   8.030  1.1315  3.7203  0.1912
  246PVA    H2641693   1.076   5.888   0.072 -0.8550  0.0654  3.9695
  246PVA    C1441694   0.869   5.855   0.011  0.8104  0.0682  1.3413
  246PVA    H2741695   0.849   5.867   8.000 -0.3907  2.5377  1.7523
  246PVA     O541696   0.782   5.768   0.068 -0.9061 -0.3213  0.3366
  246PVA    H2841697   0.728   5.832   0.118  2.4304  2.2552  1.0101
  246PVA    C1541698   0.818   5.999   0.040 -0.1812 -0.5496 -0.3659
  246PVA    H2941699   0.900   6.035   0.105 -0.4073 -1.3636  0.3917
  246PVA    H3041700   0.747   5.991   0.123  2.8726  0.4409  2.6025
  246PVA    C1641701   0.744   6.091   8.036 -0.6472 -0.1186  1.0336
  246PVA    H3141702   0.759   6.060   7.933 -1.1390 -0.4371  1.0539
  246PVA    H3241703   0.636   6.080   8.056 -0.8715 -0.5211 -0.2931
  246PVA    C1741704   0.791   6.245   8.024 -0.3539 -0.0006  0.0085
  246PVA    H3341705   0.898   6.248   7.997 -0.8046  1.2538 -1.8404
  246PVA     O641706   0.771   6.300   0.052  0.5003 -0.5442  0.3472
  246PVA    H3441707   0.764   6.397   0.040 -1.9348 -0.9291 -3.0154
  246PVA    C1841708   0.726   6.333   7.912  1.3122 -1.5172 -0.4353
  246PVA    H3541709   0.677   6.273   7.835  1.5918  0.8222 -2.5514
  246PVA    H3641710   0.637   6.383   7.952  1.7022 -0.0599 -1.3201
  246PVA    C1941711   0.799   6.443   7.826  0.6910 -0.8546  0.2685
  246PVA    H3741712   0.905   6.414   7.837  1.3079  0.4950 -1.6512
  246PVA    H3841713   0.792   6.539   7.879  1.6632  0.8240 -2.4730
  246PVA    C2041714   0.749   6.490   7.678  0.3618 -0.2372  0.1450
  246PVA    H3941715   0.830   6.555   7.643  2.2374 -3.2314 -1.5082
  246PVA     O741716   0.788   6.381   7.596 -0.0901 -0.4469 -0.0062
  246PVA    H4041717   0.883   6.404   7.597 -0.7708  2.9332  2.3139
  246PVA    C2141718   0.609   6.539   7.652  0.6889 -0.4977  0.8951
  246PVA    H4141719   0.571   6.603   7.733  0.7324 -1.1725  1.4578
  246PVA    H4241720   0.545   6.450   7.649 -0.3621  0.1322 -4.3961
  246PVA    C2241721   0.591   6.616   7.513 -0.0500 -0.2116 -0.3049
  246PVA    H4341722   0.673   6.687   7.496 -0.0636 -0.7711 -3.4934
  246PVA    H4441723   0.609   6.546   7.430 -1.2510 -1.4838  0.4665
  246PVA    C2341724   0.447   6.674   7.493  0.4453 -0.6246  0.1879
  246PVA    H4541725   0.364   6.633   7.552 -1.0739  0.6126 -0.9909
  246PVA     O841726   0.475   6.811   7.539  1.5336  0.2700 -0.8497
  246PVA    H4641727   0.506   6.860   7.461  2.0347 -0.1518 -0.9160
  246PVA    C2441728   0.389   6.674   7.350  0.3248 -0.2488  0.8046
  246PVA    H4741729   0.474   6.682   7.282  1.3702 -2.7378  1.6993
  246PVA    H4841730   0.355   6.570   7.338  0.2379 -1.0325  5.6274
  246PVA    C2541731   0.295   6.793   7.300  0.8238  0.3918  0.1701
  246PVA    H4941732   0.353   6.886   7.314  2.1335 -0.5264  1.0614
  246PVA    H5041733   0.214   6.813   7.371 -2.0427 -0.1684 -2.7193
  246PVA    C2641734   0.242   6.787   7.156 -0.4172 -1.3655  0.1332
  246PVA    H5141735   0.320   6.828   7.091 -2.4770  0.2939 -1.4561
  246PVA     O941736   0.212   6.651   7.122 -0.7863  0.5856  0.5575
  246PVA    H5241737   0.278   6.600   7.172  0.7470  1.6866 -0.2364
  246PVA    C2741738   0.115   6.886   7.138  0.7299  0.5027 -1.1861
  246PVA    H5341739   0.144   6.972   7.199  0.0027 -0.3373  0.4241
  246PVA    H5441740   0.045   6.822   7.194  0.0371  0.7661 -1.7428
  246PVA    C2841741   0.079   6.914   6.984 -0.4752 -0.0230 -0.4753
  246PVA    H5541742   0.183   6.925   6.951 -0.3213  2.5785  0.6746
  246PVA    H5641743   0.034   6.819   6.951 -0.3400 -1.1023  2.2239
  246PVA    C2941744   7.734   7.013   6.932  0.2790 -0.8372  0.3979
  246PVA    H5741745   7.675   6.937   6.881  1.0902 -2.5445  1.9012
  246PVA    O1041746   7.676   7.081   7.032  0.3934 -0.5842  0.2970
  246PVA    H5841747   7.675   7.175   7.006  1.8224 -0.6156  0.0777
  246PVA    C3041748   0.029   7.109   6.812  0.1135  0.2377 -1.0514
  246PVA    H5941749   0.098   7.038   6.764 -0.0846 -3.7179  3.6547
  246PVA    H6041750   0.099   7.182   6.856  0.4183  0.4752 -1.9166
  246PVA    C3141751   7.692   7.197   6.742 -0.7471 -0.8930 -0.3803
  246PVA    H6141752   7.659   7.146   6.651  1.8353  1.2301 -2.6827
  246PVA    H6241753   7.606   7.218   6.807 -0.7757  2.6175 -1.3270
  246PVA    C3241754   7.747   7.316   6.670 -0.1112 -1.4800 -0.8585
  246PVA    H6341755   0.089   7.323   6.654 -0.2859  0.2557 -1.4553
  246PVA    O1141756   7.741   7.420   6.762  0.2234  0.0241 -0.2845
  246PVA    H6441757   7.691   7.373   6.831  0.6028 -0.1641 -0.1371
  246PVA    C3341758   7.673   7.365   6.535  0.6291 -0.1223  1.1037
  246PVA    H6541759   7.658   7.280   6.466  2.0180 -0.3156  1.0185
  246PVA    H6641760   7.572   7.402   6.557  0.0107 -0.6922 -0.6295
  246PVA    C3441761   7.747   7.468   6.453  0.4758 -0.2346 -0.3336
  246PVA    H6741762   0.047   7.517   6.525 -1.3974  1.6661  0.2004
  246PVA    H6841763   7.669   7.546   6.446 -1.3865 -2.1409 -3.5634
  246PVA    C3541764   0.042   7.450   6.310 -0.2728  0.4162 -0.7994
  246PVA    H6941765   0.108   7.364   6.329  0.1361 -0.5635 -5.4070
  246PVA    O1241766   7.709   7.403   6.210  0.0183  0.1824  0.2901
  246PVA    H7041767   7.757   7.375   6.130  2.2683  1.3000  1.1562
  246PVA    C3641768   0.111   7.562   6.247  0.0014 -0.9865  0.3006
  246PVA    H7141769   0.078   7.580   6.144 -3.3495 -3.7323  0.7089
  246PVA    H7241770   0.096   7.645   6.317 -0.1209  0.3071 -1.2115
  246PVA    C3741771   0.266   7.552   6.251 -0.0913  0.7842  0.7169
  246PVA    H7341772   0.317   7.469   6.200 -3.6938  0.8889 -3.6723
  246PVA    H7441773   0.289   7.553   6.359 -1.7956  4.0291  1.1687
  246PVA    C3841774   0.343   0.003   6.208  0.3995  0.2232  0.8006
  246PVA    H7541775   0.359   7.674   6.101 -1.6180  0.3659  0.4414
  246PVA    O1341776   0.273   0.129   6.244 -0.2196 -0.2411 -0.4823
  246PVA    H7641777   0.289   0.178   6.161  0.9762 -2.1848 -1.4653
  246PVA    C3941778   0.481   0.004   6.263 -1.4722  0.4827  0.3233
  246PVA    H7741779   0.481   7.678   6.373 -0.0505 -1.9813  0.1773
  246PVA    H7841780   0.523   7.589   6.244  2.1295  1.7893  0.6579
  246PVA    C4041781   0.588   0.119   6.244  0.4528 -0.2134  0.1232
  246PVA    H7941782   0.616   0.130   6.138  1.6502 -0.2005  0.4320
  246PVA    H8041783   0.524   0.198   6.286 -1.1735 -0.5004 -1.6203
  246PVA    C4141784   0.716   0.097   6.332  0.1987 -1.0279  0.2769
  246PVA    H8141785   0.681   0.064   6.431 -1.2128  0.4029  0.2883
  246PVA    O1441786   0.793   0.003   6.269  0.4935 -0.1931  0.2518
  246PVA    H8241787   0.758   7.666   6.181 -0.6450 -1.2990  0.9333
  246PVA    C4241788   0.799   0.233   6.383 -0.7275  0.7962  0.7514
  246PVA    H8341789   0.744   0.279   6.466 -2.0790 -0.7601  0.7745
  246PVA    H8441790   0.780   0.302   6.300  0.0272  0.3897  0.2316
  246PVA    C4341791   0.947   0.213   6.434 -1.4123 -0.0380  0.5508
  246PVA    H8541792   0.949   0.146   6.521 -2.9612  0.1514  0.7535
  246PVA    H8641793   0.997   0.171   6.346 -5.5103  2.0810 -3.1672
  246PVA    C4441794   1.020   0.347   6.475 -0.6381  0.5306  0.2290
  246PVA    H8741795   0.951   0.385   6.552  2.3555 -3.7009  5.7892
  246PVA    O1541796   1.036   0.438   6.367  0.1706  0.0209 -0.0742
  246PVA    H8841797   1.013   0.528   6.396  2.2868  0.5501  0.1413
  246PVA    C4541798   1.159   0.328   6.545 -0.7749  0.9031  0.1177
  246PVA    H8941799   1.228   0.354   6.464  1.1251  0.6439  1.5837
  246PVA    H9041800   1.182   0.222   6.563  0.9009  1.4295  1.3527
  246PVA    C4641801   1.203   0.401   6.684  0.9532 -0.2178  0.9265
  246PVA    H9141802   1.173   0.506   6.676 -3.2147 -1.0696  2.4449
  246PVA    H9241803   1.149   0.357   6.769 -1.2344 -4.5100 -2.2259
  246PVA    C4741804   1.348   0.381   6.727  0.5131 -1.2160 -1.4208
  246PVA    H9341805   1.352   0.282   6.774 -0.2966 -1.0135 -0.9039
  246PVA    O1641806   1.430   0.370   6.611  0.6593 -0.4742 -0.3991
  246PVA    H9441807   1.524   0.388   6.629  0.1792  2.1057 -0.1114
  246PVA    C4841808   1.415   0.463   6.846 -0.9686  0.1003 -0.4667
  246PVA    H9541809   1.362   0.557   6.864  2.1807  1.5415  2.5951
  246PVA    H9641810   1.391   0.399   6.932 -6.0329  0.9975 -0.9313
  246PVA    C4941811   1.574   0.485   6.839 -0.0821  0.7002  0.2292
  246PVA    H9741812   1.611   0.520   6.741  3.2491  1.8947  1.7640
  246PVA    H9841813   1.625   0.390   6.816  2.1218  2.2562 -1.8521
  246PVA    C5041814   1.648   0.540   6.967 -0.6091 -0.7987 -0.1237
  246PVA    H9941815   1.588   0.614   7.022  1.4596 -0.5271  1.8827
  246PVA    O1741816   1.680   0.442   7.065  0.0752  0.0094  0.0805
  246PVA   H10041817   1.718   0.480   7.146 -1.1605 -0.1875  0.7842
  246PVA    C5141818   1.775   0.630   6.937  0.0103  0.2284  0.1023
  246PVA   H10141819   1.735   0.731   6.922 -1.2775  0.0554  2.0518
  246PVA   H10241820   1.813   0.596   6.840 -0.6168  1.9603 -0.7914
  247PVA     C141821   2.484   4.972   1.204 -0.7149 -0.5365  0.9985
  247PVA     H141822   2.511   5.076   1.187  3.2422 -1.5550  0.1223
  247PVA     H241823   2.418   4.971   1.292  0.2649  3.2629  1.9216
  247PVA     C241824   2.637   4.918   1.247 -0.0510 -0.7623 -0.5267
  247PVA     H341825   2.695   4.897   1.157 -1.0885  0.7467 -1.6071
  247PVA     O141826   2.605   4.792   1.311  0.4710  0.1177 -0.3423
  247PVA     H441827   2.612   4.817   1.405 -3.9133 -0.7636  0.4334
  247PVA     C341828   2.720   5.020   1.344 -0.3435 -0.5722  0.4120
  247PVA     H541829   2.650   5.044   1.426  0.2122  0.9075  0.4845
  247PVA     H641830   2.730   5.118   1.297  2.4268 -0.9542  0.0587
  247PVA     C441831   2.859   4.981   1.412 -0.2076  0.3163 -0.2908
  247PVA     H741832   2.852   4.897   1.481  3.6652  2.0984  2.6832
  247PVA     H841833   2.903   4.947   1.317  0.4506  1.2231 -0.3213
  247PVA     C541834   2.940   5.087   1.498  0.7805  0.5077 -0.9243
  247PVA     H941835   2.875   5.124   1.578  1.9109  0.7094 -0.0715
  247PVA     O241836   2.985   5.193   1.420  0.8161 -0.2467  0.5500
  247PVA    H1041837   3.014   5.261   1.483 -0.3825  0.7079  0.1085
  247PVA     C641838   3.070   5.031   1.575 -0.4725 -0.4673 -1.2155
  247PVA    H1141839   3.038   4.929   1.600 -2.5637 -0.3714 -3.2418
  247PVA    H1241840   3.149   5.007   1.503 -0.5602 -1.6086 -0.9571
  247PVA     C741841   3.109   5.095   1.722  0.6764  0.1285  0.4747
  247PVA    H1341842   3.098   5.008   1.788 -0.5323  1.0699  1.5525
  247PVA    H1441843   3.036   5.164   1.766  0.1215 -1.0385  1.4554
  247PVA     C841844   3.252   5.124   1.771 -0.7081  0.1600 -1.3380
  247PVA    H1541845   3.324   5.043   1.757 -0.1136  0.2148  1.0163
  247PVA     O341846   3.309   5.240   1.714 -1.2609 -0.7881  1.0269
  247PVA    H1641847   3.265   5.268   1.632  0.8788 -3.4302 -1.2170
  247PVA     C941848   3.273   5.130   1.928  1.6261 -1.0116  0.7130
  247PVA    H1741849   3.264   5.025   1.959  2.2090 -0.3800  3.2434
  247PVA    H1841850   3.188   5.174   1.982  0.5371 -4.0162  1.7018
  247PVA    C1041851   3.403   5.190   1.989  0.0495 -0.3533 -0.1131
  247PVA    H1941852   3.497   5.139   1.967  0.4467 -0.9813  2.6877
  247PVA    H2041853   3.415   5.294   1.956  0.2224 -0.8190 -1.5995
  247PVA    C1141854   3.390   5.216   2.150  0.3832  0.4008 -0.0572
  247PVA    H2141855   3.292   5.264   2.157 -1.2932 -2.4335 -2.2291
  247PVA     O441856   3.394   5.087   2.225 -0.2337 -1.2138 -0.3622
  247PVA    H2241857   3.412   5.100   2.320 -0.7855 -0.0868 -0.3917
  247PVA    C1241858   3.509   5.292   2.218 -1.0037 -0.1369 -0.5218
  247PVA    H2341859   3.601   5.246   2.182 -0.0276  2.9127 -2.3314
  247PVA    H2441860   3.528   5.389   2.171  1.3542  0.1565  0.8842
  247PVA    C1341861   3.514   5.310   2.377  1.6978  0.2822 -0.8548
  247PVA    H2541862   3.429   5.378   2.396  2.8143  1.6253 -0.5240
  247PVA    H2641863   3.475   5.218   2.421  0.2337  0.3915 -1.8263
  247PVA    C1441864   3.645   5.358   2.441  0.7831 -0.3047  0.2562
  247PVA    H2741865   3.656   5.458   2.396 -0.5927 -1.3069 -2.5347
  247PVA     O541866   3.757   5.270   2.416  0.6471 -0.2182 -0.9440
  247PVA    H2841867   3.808   5.268   2.499  2.6477  2.0976 -1.9966
  247PVA    C1541868   3.626   5.399   2.596  0.6133  1.1220  1.0155
  247PVA    H2941869   3.597   5.309   2.653 -1.4819  2.8080  2.7915
  247PVA    H3041870   3.544   5.469   2.614  0.2022  0.4637  1.7840
  247PVA    C1641871   3.766   5.448   2.651  0.0286  0.0414 -0.6324
  247PVA    H3141872   3.779   5.556   2.636 -0.3400 -0.0466 -1.6623
  247PVA    H3241873   3.847   5.417   2.585  1.0035  0.0518  0.5286
  247PVA    C1741874   3.790   5.425   2.803  0.3226 -0.2726 -0.3996
  247PVA    H3341875   3.703   5.472   2.852  0.4787  0.1450 -0.5127
  247PVA     O641876   3.775   5.280   2.828  0.5658  0.1769  0.5928
  247PVA    H3441877   3.680   5.258   2.833  0.4735  0.6688  1.1933
  247PVA    C1841878   3.918   5.489   2.860 -0.3772 -0.4652  0.2024
  247PVA    H3541879   4.008   5.456   2.806  0.1389 -1.1732  1.4517
  247PVA    H3641880   3.914   5.596   2.841  0.6735 -0.4383  0.0340
  247PVA    C1941881   3.947   5.472   3.012  0.4230  0.8357 -0.5063
  247PVA    H3741882   3.999   5.378   3.036  1.9217  1.6809 -0.3068
  247PVA    H3841883   3.846   5.485   3.052  1.1267  2.0968  0.9923
  247PVA    C2041884   4.026   5.584   3.079  0.0495 -0.8114 -0.2148
  247PVA    H3941885   3.969   5.675   3.056  3.8908  1.3483 -2.4919
  247PVA     O741886   4.148   5.612   3.005 -0.2132  0.0102 -0.2726
  247PVA    H4041887   4.206   5.537   3.028 -1.1681 -0.4009  0.9467
  247PVA    C2141888   4.054   5.550   3.229 -0.6087 -0.2589  0.4943
  247PVA    H4141889   4.110   5.456   3.226  3.2443  1.8141  0.7251
  247PVA    H4241890   3.955   5.538   3.274 -2.8565 -0.3907 -3.9315
  247PVA    C2241891   4.134   5.653   3.313  1.1575  0.3508 -1.2752
  247PVA    H4341892   4.235   5.669   3.273  0.3639  3.7986 -2.1770
  247PVA    H4441893   4.083   5.750   3.310 -2.8738 -1.5065  0.1936
  247PVA    C2341894   4.151   5.628   3.477  0.2949 -0.9300 -0.5404
  247PVA    H4541895   4.203   5.533   3.497 -0.5627 -1.2345  0.3325
  247PVA     O841896   4.014   5.621   3.534 -0.1721 -0.2490 -0.6107
  247PVA    H4641897   4.014   5.619   3.631  2.9958 -0.6888 -0.5110
  247PVA    C2441898   4.229   5.733   3.573 -0.5075 -1.1714  0.2109
  247PVA    H4741899   4.334   5.701   3.569 -0.4003 -0.7832 -0.1923
  247PVA    H4841900   4.228   5.829   3.519 -1.3604 -1.7839 -0.8957
  247PVA    C2541901   4.173   5.767   3.721 -0.8863 -0.1806  0.1190
  247PVA    H4941902   4.149   5.663   3.744 -2.5676 -0.0108 -0.7070
  247PVA    H5041903   4.083   5.828   3.710 -1.7921 -0.7371  3.4930
  247PVA    C2641904   4.276   5.836   3.820 -1.2392 -0.3303  0.0730
  247PVA    H5141905   4.340   5.756   3.860 -1.1071 -0.7014 -0.8487
  247PVA     O941906   4.341   5.931   3.732  0.0509  0.1065 -0.3201
  247PVA    H5241907   4.287   6.012   3.726 -1.5939 -0.4417  3.9887
  247PVA    C2741908   4.202   5.913   3.948  0.3468 -0.1606  0.1322
  247PVA    H5341909   4.140   5.837   3.998 -0.1827  1.8669  2.8153
  247PVA    H5441910   4.129   5.980   3.900 -0.1576 -0.3521  0.6144
  247PVA    C2841911   4.276   5.993   4.064 -0.0215 -0.5214 -0.1755
  247PVA    H5541912   4.340   6.066   4.013 -3.2354 -0.3663 -4.5676
  247PVA    H5641913   4.352   5.925   4.105 -0.7276 -2.1876 -1.5180
  247PVA    C2941914   4.190   6.060   4.187  0.5739 -0.2700 -1.0427
  247PVA    H5741915   4.210   5.975   4.254 -1.3160 -1.4156 -1.8463
  247PVA    O1041916   4.047   6.060   4.169 -0.0253 -0.2949 -0.7976
  247PVA    H5841917   4.018   6.015   4.250 -2.6476  0.1497 -1.3880
  247PVA    C3041918   4.235   6.186   4.262  0.1975 -1.2504  0.2533
  247PVA    H5941919   4.205   6.266   4.193 -1.8086 -0.4188  1.9876
  247PVA    H6041920   4.344   6.197   4.270 -0.0997  2.5105  1.1130
  247PVA    C3141921   4.190   6.226   4.406  0.1556  0.8095  0.0891
  247PVA    H6141922   4.084   6.202   4.421  0.8434 -2.4684  0.3853
  247PVA    H6241923   4.247   6.170   4.482 -0.8613  0.7468  0.8241
  247PVA    C3241924   4.196   6.368   4.450 -0.6627 -0.6565 -0.7875
  247PVA    H6341925   4.296   6.383   4.492 -0.8468 -0.7926 -0.3012
  247PVA    O1141926   4.165   6.465   4.342 -0.3483 -0.0509  0.5671
  247PVA    H6441927   4.226   6.477   4.267 -2.5374 -3.3041 -1.9983
  247PVA    C3341928   4.106   6.400   4.575  0.0671  0.1657  1.1324
  247PVA    H6541929   4.007   6.353   4.570  0.3798 -0.8492  3.1031
  247PVA    H6641930   4.155   6.354   4.662 -0.4342 -0.4687  1.0867
  247PVA    C3441931   4.077   6.547   4.608  0.2604  0.3692 -0.5032
  247PVA    H6741932   4.068   6.590   4.508 -1.9663 -0.5084 -0.7194
  247PVA    H6841933   4.169   6.580   4.659  1.4182 -1.0494 -1.5631
  247PVA    C3541934   3.948   6.591   4.691  0.9789  0.0520 -0.0725
  247PVA    H6941935   3.859   6.536   4.657  1.0706 -0.5771  0.6608
  247PVA    O1241936   3.980   6.543   4.824 -2.0329  0.2526  0.4834
  247PVA    H7041937   3.890   6.529   4.858 -1.6330  0.6482  1.7677
  247PVA    C3641938   3.909   6.741   4.693  0.3564 -0.5664 -0.0691
  247PVA    H7141939   4.007   6.787   4.710  0.2504 -1.0893  2.4007
  247PVA    H7241940   3.872   6.761   4.592 -0.5215  2.2377  0.7193
  247PVA    C3741941   3.804   6.791   4.796 -0.1418 -0.4055  0.1398
  247PVA    H7341942   3.823   6.744   4.893 -0.3213 -0.6073  0.0773
  247PVA    H7441943   3.708   6.751   4.760 -0.0106 -0.8333  0.2712
  247PVA    C3841944   3.785   6.955   4.811 -1.2633  1.0537  0.0119
  247PVA    H7541945   3.875   6.990   4.863 -0.4125 -1.3973  0.3567
  247PVA    O1341946   3.771   7.011   4.680  0.5477  0.1214 -0.4286
  247PVA    H7641947   3.841   7.078   4.693  1.3713 -0.8413  0.3043
  247PVA    C3941948   3.663   7.009   4.895  0.5369  0.4545  0.7425
  247PVA    H7741949   3.636   6.951   4.984 -2.8327 -1.3146 -1.1876
  247PVA    H7841950   3.576   6.974   4.837 -1.2462  0.7295  3.0835
  247PVA    C4041951   3.660   7.161   4.909  0.1687  0.0637  0.2373
  247PVA    H7941952   3.749   7.201   4.958  1.1864 -1.1452 -0.5823
  247PVA    H8041953   3.671   7.208   4.811 -1.6613  1.4456  0.6185
  247PVA    C4141954   3.538   7.216   4.986  1.3795  0.1731  0.1851
  247PVA    H8141955   3.545   7.184   5.090  3.3405 -1.1473 -0.2953
  247PVA    O1441956   3.420   7.150   4.931 -0.1722  0.4836  0.3843
  247PVA    H8241957   3.440   7.125   4.839 -0.5364 -3.3495  1.1765
  247PVA    C4241958   3.538   7.373   4.976  0.6820 -0.1033 -0.7208
  247PVA    H8341959   3.498   7.423   4.887 -3.5198 -0.0225  0.9983
  247PVA    H8441960   3.637   7.416   4.995  1.3202 -1.7073 -0.2044
  247PVA    C4341961   3.431   7.454   5.068  0.5044  0.2884 -0.2756
  247PVA    H8541962   3.480   7.445   5.166  3.7948 -1.4065 -1.9034
  247PVA    H8641963   3.337   7.398   5.068  2.1255 -2.8975  3.2752
  247PVA    C4441964   3.397   7.609   5.028 -0.9062 -1.0664 -1.2337
  247PVA    H8741965   3.492   7.661   5.014 -0.8372 -0.7334  0.3951
  247PVA    O1541966   3.333   7.605   4.895  0.1246 -0.5682 -0.4151
  247PVA    H8841967   3.258   7.543   4.887  0.7128 -1.2869 -0.4690
  247PVA    C4541968   3.306   7.677   5.130 -0.2305 -0.7535  0.1692
  247PVA    H8941969   3.367   0.007   5.219  0.4661 -1.1862 -0.2196
  247PVA    H9041970   3.224   7.617   5.171  0.1765 -0.5781  1.2670
  247PVA    C4641971   3.256   0.141   5.080 -0.2733 -0.3972 -0.4115
  247PVA    H9141972   3.323   0.196   5.012 -2.2397  1.0671 -1.2926
  247PVA    H9241973   3.183   0.114   5.002  0.8271 -0.9377 -1.2837
  247PVA    C4741974   3.193   0.251   5.179  0.2248 -0.1871 -0.2245
  247PVA    H9341975   3.112   0.210   5.241  0.6664  0.4814  0.8371
  247PVA    O1641976   3.290   0.262   5.283  0.0517  0.8168 -0.9296
  247PVA    H9441977   3.246   0.327   5.340 -1.1264 -0.7673  0.0475
  247PVA    C4841978   3.174   0.396   5.127  1.2319  0.4619 -0.2059
  247PVA    H9541979   3.274   0.432   5.101  1.4666  1.5196  1.9361
  247PVA    H9641980   3.125   0.387   5.030 -1.9729 -0.4454  1.3464
  247PVA    C4941981   3.101   0.511   5.211  0.9533  0.5388 -0.0915
  247PVA    H9741982   3.155   0.518   5.307  0.5984 -1.6789  0.3270
  247PVA    H9841983   3.014   0.457   5.251  2.7889 -0.2616  3.2282
  247PVA    C5041984   3.050   0.649   5.155  1.5590  0.7118  0.4005
  247PVA    H9941985   2.970   0.635   5.082  2.1038 -4.3735  0.4326
  247PVA    O1741986   3.144   0.694   5.053  0.0230  0.0821  0.8600
  247PVA   H10041987   3.110   0.765   4.996  2.2078 -1.0210 -2.0906
  247PVA    C5141988   2.998   0.771   5.257 -0.6061  0.5496 -0.3298
  247PVA   H10141989   3.081   0.810   5.317  0.8048 -1.5823 -0.7685
  247PVA   H10241990   2.935   0.725   5.334  2.9137 -2.4907  1.0441
  248PVA     C141991   2.150   1.628   6.782  0.0349  0.5816  0.3253
  248PVA     H141992   2.135   1.533   6.730  0.0453  1.9571 -2.3388
  248PVA     H241993   2.058   1.687   6.772  0.7113  1.4356 -1.0360
  248PVA     C241994   2.272   1.692   6.694  0.4245  0.6913 -0.8751
  248PVA     H341995   2.310   1.762   6.770 -1.5951  2.5721 -1.4800
  248PVA     O141996   2.371   1.590   6.678  1.2083  0.2204  0.8201
  248PVA     H441997   2.414   1.602   6.592  1.0109 -4.6562 -0.2442
  248PVA     C341998   2.258   1.779   6.558 -0.2375 -0.2336  0.3046
  248PVA     H541999   2.167   1.838   6.574 -1.6839 -1.2923 -3.0984
  248PVA     H642000   2.216   1.703   6.491 -1.7345 -0.4017  1.3694
  248PVA     C442001   2.373   1.854   6.483 -0.1782  0.4266 -0.1351
  248PVA     H742002   2.442   1.774   6.456 -1.9009 -0.1735 -3.3315
  248PVA     H842003   2.441   1.913   6.545 -1.0623  3.0077 -1.4499
  248PVA     C542004   2.348   1.931   6.338 -0.5644  0.5428  0.4609
  248PVA     H942005   2.446   1.920   6.291 -0.2528  0.6520  1.0780
  248PVA     O242006   2.239   1.862   6.281  0.5178  0.0802 -0.8660
  248PVA    H1042007   2.179   1.924   6.237 -0.4117  0.9927  1.5187
  248PVA     C642008   2.325   2.096   6.336  0.1167 -1.0477 -0.8104
  248PVA    H1142009   2.224   2.118   6.373 -1.4122  1.6562 -5.7076
  248PVA    H1242010   2.392   2.114   6.420 -2.0590 -0.6574  0.9415
  248PVA     C742011   2.374   2.194   6.217  0.1654 -0.0352  0.5258
  248PVA    H1342012   2.379   2.131   6.128  0.4743 -0.4419  0.8239
  248PVA    H1442013   2.480   2.223   6.211  0.5744 -1.4644  0.3709
  248PVA     C842014   2.313   2.340   6.190  0.3625 -1.0346 -0.5651
  248PVA    H1542015   2.257   2.365   6.280  0.1959 -0.2427 -0.8797
  248PVA     O342016   2.216   2.338   6.087 -0.1738  0.1511 -0.2669
  248PVA    H1642017   2.152   2.271   6.117  1.1384 -0.0557  2.3602
  248PVA     C942018   2.400   2.474   6.147  0.6592  0.7067 -0.8205
  248PVA    H1742019   2.498   2.460   6.195 -1.5319 -0.4156  3.9222
  248PVA    H1842020   2.426   2.465   6.041 -2.8616  5.2589 -2.3543
  248PVA    C1042021   2.345   2.625   6.173  0.0835 -0.9174  0.7141
  248PVA    H1942022   2.346   2.640   6.281 -1.5029  0.2349  0.6144
  248PVA    H2042023   2.243   2.635   6.132  0.5206 -4.8703 -1.8604
  248PVA    C1142024   2.425   2.772   6.142  0.6900 -1.2527 -0.1218
  248PVA    H2142025   2.510   2.787   6.210  3.3645 -0.7229 -3.2934
  248PVA     O442026   2.486   2.766   6.014 -0.0099 -1.1430 -0.4897
  248PVA    H2242027   2.512   2.855   5.984 -0.3844 -0.9389 -0.2226
  248PVA    C1242028   2.342   2.903   6.133  0.4971  0.2130  0.1797
  248PVA    H2342029   2.326   2.928   6.028 -0.4599  1.4621  0.5965
  248PVA    H2442030   2.243   2.879   6.172  2.2539 -2.4676  3.5078
  248PVA    C1342031   2.391   3.048   6.190  0.1376 -0.7248  0.3714
  248PVA    H2542032   2.423   3.047   6.295 -2.4618 -0.5583  1.2266
  248PVA    H2642033   2.490   3.062   6.144  1.3741 -5.8412  0.8000
  248PVA    C1442034   2.287   3.166   6.160  0.1481 -0.4489  0.9479
  248PVA    H2742035   2.186   3.141   6.194  0.3805 -1.1970  1.1052
  248PVA     O542036   2.278   3.168   6.011  0.3518  0.3330  1.3342
  248PVA    H2842037   2.200   3.222   5.994 -0.0563 -1.1641 -2.4286
  248PVA    C1542038   2.329   3.317   6.192  0.8111 -0.6829 -0.8740
  248PVA    H2942039   2.424   3.352   6.152 -0.4598  1.7863 -1.9793
  248PVA    H3042040   2.317   3.329   6.300 -3.9437 -1.1586 -1.1218
  248PVA    C1642041   2.234   3.442   6.161  0.3192  0.1571  0.3966
  248PVA    H3142042   2.251   3.454   6.053  0.8729 -1.1024  0.3169
  248PVA    H3242043   2.127   3.418   6.167  1.0390 -4.1797 -0.6024
  248PVA    C1742044   2.273   3.571   6.230 -0.0191  0.3065  0.6234
  248PVA    H3342045   2.382   3.573   6.233  0.3790  0.3552 -4.8186
  248PVA     O642046   2.215   3.556   6.360 -0.4627 -0.4495  0.3540
  248PVA    H3442047   2.171   3.473   6.336 -0.4670  0.1167 -1.7971
  248PVA    C1842048   2.226   3.718   6.173 -0.5497  0.0903  1.4111
  248PVA    H3542049   2.272   3.738   6.075 -1.2838  0.2998  1.1064
  248PVA    H3642050   2.117   3.724   6.167 -0.4072  2.1844 -1.3948
  248PVA    C1942051   2.253   3.858   6.247 -0.6445  0.5430 -0.1381
  248PVA    H3742052   2.276   3.833   6.352  1.5925  1.8989 -0.2239
  248PVA    H3842053   2.151   3.900   6.249 -0.2582  1.5123  0.9717
  248PVA    C2042054   2.336   3.980   6.188  0.0919 -1.3067  1.0682
  248PVA    H3942055   2.356   3.960   6.082  0.3027 -2.3122  1.2824
  248PVA     O742056   2.254   4.102   6.160 -0.1327  0.1303 -0.0312
  248PVA    H4042057   2.182   4.098   6.224 -0.7338  1.7139 -0.5851
  248PVA    C2142058   2.464   4.034   6.271 -0.5525 -1.2204  0.0330
  248PVA    H4142059   2.510   3.952   6.327  1.6022  0.3430  0.6957
  248PVA    H4242060   2.427   4.102   6.349  2.0010 -0.3252  0.5764
  248PVA    C2242061   2.575   4.147   6.217  1.2270  0.5682  0.7231
  248PVA    H4342062   2.540   4.168   6.116 -1.4908 -0.9928  1.2144
  248PVA    H4442063   2.535   4.239   6.262 -3.3468 -0.0183 -1.5737
  248PVA    C2342064   2.734   4.144   6.250 -0.5888 -0.0763  0.6302
  248PVA    H4542065   2.758   4.048   6.204 -3.4587 -1.5334  1.9458
  248PVA     O842066   2.755   4.134   6.394  0.3679 -0.3665 -0.1357
  248PVA    H4642067   2.687   4.193   6.431 -1.3874 -2.4439  0.1593
  248PVA    C2442068   2.868   4.239   6.200 -0.3992 -0.0170  0.2741
  248PVA    H4742069   2.837   4.334   6.244 -2.9540 -0.6635  0.0483
  248PVA    H4842070   2.958   4.208   6.254  1.3074  2.1905 -1.1343
  248PVA    C2542071   2.925   4.282   6.048 -0.8469 -0.0567  0.3115
  248PVA    H4942072   2.974   4.378   6.065 -1.3987  0.1622  0.6745
  248PVA    H5042073   2.857   4.323   5.973  3.9320 -0.3505 -4.8469
  248PVA    C2642074   3.047   4.213   5.968  0.3937  0.5224  0.3158
  248PVA    H5142075   3.111   4.289   5.923 -0.4926 -0.3576 -2.6007
  248PVA     O942076   3.110   4.135   6.065 -0.3498  0.1452  0.2525
  248PVA    H5242077   3.055   4.063   6.101  0.2798  0.3483  1.6977
  248PVA    C2742078   3.036   4.118   5.834  0.4081  0.2501 -0.8446
  248PVA    H5342079   2.931   4.091   5.815  0.2976  0.2761 -0.3083
  248PVA    H5442080   3.058   4.180   5.746 -3.4773  1.5672 -1.0759
  248PVA    C2842081   3.117   3.980   5.821  0.4278  0.0124  0.6640
  248PVA    H5542082   3.224   4.002   5.814  0.5619  1.5485  4.6994
  248PVA    H5642083   3.092   3.938   5.920 -1.2104  2.7361  1.5081
  248PVA    C2942084   3.082   3.887   5.691 -0.3395  0.6337 -0.9842
  248PVA    H5742085   2.982   3.848   5.715  0.1770  0.4682  1.1646
  248PVA    O1042086   3.093   3.952   5.564 -0.2608 -1.1674  0.8863
  248PVA    H5842087   3.178   4.001   5.568 -0.2926 -0.2840 -3.6268
  248PVA    C3042088   3.163   3.752   5.649 -0.3699  0.0111  0.7832
  248PVA    H5942089   3.259   3.805   5.650  0.2973 -0.9100  4.6011
  248PVA    H6042090   3.159   3.689   5.739 -1.1923 -3.7640 -1.6946
  248PVA    C3142091   3.127   3.658   5.512 -1.1943 -0.4689  0.8148
  248PVA    H6142092   3.112   3.732   5.431 -2.3492 -1.1156  0.4056
  248PVA    H6242093   3.222   3.607   5.496 -1.3530 -0.3233 -0.7643
  248PVA    C3242094   3.012   3.548   5.489  0.6635  0.4279 -0.1599
  248PVA    H6342095   2.925   3.603   5.450  2.1259  4.0362  1.2282
  248PVA    O1142096   2.978   3.479   5.609 -0.2339  0.3003  0.3333
  248PVA    H6442097   3.024   3.537   5.672  0.0204 -0.0267  0.4502
  248PVA    C3342098   3.058   3.444   5.369 -0.2578  0.7545 -0.0354
  248PVA    H6542099   2.989   3.467   5.287 -0.9118  2.5925  0.9924
  248PVA    H6642100   3.149   3.491   5.330 -1.0921  1.5669 -1.0394
  248PVA    C3442101   3.061   3.281   5.395  0.7378 -0.1154  0.7442
  248PVA    H6742102   2.981   3.250   5.464 -0.9654 -3.9750 -2.5171
  248PVA    H6842103   3.148   3.260   5.459  1.8463  2.0551  0.0476
  248PVA    C3542104   3.066   3.167   5.282  0.3537  0.9619  0.2573
  248PVA    H6942105   3.143   3.191   5.207  1.2287  3.3298  1.8041
  248PVA    O1242106   2.944   3.149   5.220 -0.8392  0.3046 -0.5878
  248PVA    H7042107   2.910   3.061   5.241 -0.5528  0.7421  2.0058
  248PVA    C3642108   3.121   3.022   5.338  0.2519  0.1003  0.6208
  248PVA    H7142109   3.108   3.029   5.447  3.1784  0.3407  1.0325
  248PVA    H7242110   3.231   3.024   5.339  0.2761  2.7762  1.5459
  248PVA    C3742111   3.062   2.879   5.289 -0.6447 -0.6506  0.9846
  248PVA    H7342112   2.996   2.837   5.366 -2.1141 -0.5848 -0.1978
  248PVA    H7442113   3.001   2.911   5.204  2.4011  3.2787 -0.0400
  248PVA    C3842114   3.166   2.778   5.240  0.1092  1.3571  0.8273
  248PVA    H7542115   3.224   2.756   5.331 -0.5829  0.9926  1.1889
  248PVA    O1342116   3.258   2.823   5.152 -0.6424  0.0691 -1.6095
  248PVA    H7642117   3.242   2.806   5.058  2.2345  0.0304 -2.1853
  248PVA    C3942118   3.112   2.638   5.184 -0.1707  0.3691  1.2425
  248PVA    H7742119   3.037   2.657   5.105 -0.5092  0.4282  1.5752
  248PVA    H7842120   3.064   2.570   5.255  2.0875 -4.6641 -1.5648
  248PVA    C4042121   3.209   2.538   5.112  0.2475 -0.0750  0.6551
  248PVA    H7942122   3.300   2.520   5.171 -1.0607  0.3335  2.8939
  248PVA    H8042123   3.269   2.572   5.026 -2.0382  2.2539 -0.1392
  248PVA    C4142124   3.147   2.405   5.070  0.0124 -0.4447  1.1568
  248PVA    H8142125   3.042   2.415   5.041  0.5502 -0.8363 -1.0925
  248PVA    O1442126   3.157   2.319   5.184  1.0239 -0.2534  0.1370
  248PVA    H8242127   3.252   2.300   5.176  1.4601  1.4772  0.6554
  248PVA    C4242128   3.201   2.330   4.935 -0.9070  0.6443 -0.1445
  248PVA    H8342129   3.208   2.401   4.852  1.9502  0.9797  0.2687
  248PVA    H8442130   3.308   2.303   4.942 -0.8831  1.0600  1.4750
  248PVA    C4342131   3.121   2.195   4.894  0.5134  0.4039  0.0681
  248PVA    H8542132   3.033   2.238   4.843 -1.6834 -3.1989  0.4791
  248PVA    H8642133   3.081   2.169   4.993  1.0703  1.8361  0.6962
  248PVA    C4442134   3.194   2.071   4.822 -1.2457 -0.1140 -0.2897
  248PVA    H8742135   3.199   2.124   4.726 -0.6366  0.7483  0.2043
  248PVA    O1542136   3.329   2.046   4.878  0.4466  0.0856  0.2942
  248PVA    H8842137   3.410   2.092   4.850  1.2850 -2.9019 -2.9624
  248PVA    C4542138   3.121   1.936   4.771  0.2365  1.1001  0.2953
  248PVA    H8942139   3.015   1.941   4.797  0.5804  1.1799  1.7681
  248PVA    H9042140   3.106   1.953   4.663 -3.3044 -4.0555 -0.3992
  248PVA    C4642141   3.190   1.787   4.806  0.3379 -1.5402  0.9362
  248PVA    H9142142   3.264   1.774   4.726  0.8055 -0.0370  1.0818
  248PVA    H9242143   3.267   1.806   4.881  2.5507 -1.4752 -1.2255
  248PVA    C4742144   3.086   1.662   4.812 -0.9642 -0.5526  0.1140
  248PVA    H9342145   3.026   1.688   4.900 -1.4157  1.7559 -0.8003
  248PVA    O1642146   3.000   1.651   4.703 -0.2504 -0.7413  0.5893
  248PVA    H9442147   3.041   1.586   4.642  0.8028 -2.9824  3.4493
  248PVA    C4842148   3.129   1.521   4.856  0.1586  0.9297 -0.3785
  248PVA    H9542149   3.199   1.518   4.940 -0.6384 -0.9808  0.2854
  248PVA    H9642150   3.193   1.477   4.778  2.5059  5.0171 -1.0409
  248PVA    C4942151   3.011   1.411   4.868  0.0710 -0.2504  0.0443
  248PVA    H9742152   2.973   1.413   4.765 -3.5038 -0.0678  1.2105
  248PVA    H9842153   2.924   1.453   4.921 -0.1287  1.3619 -1.4406
  248PVA    C5042154   3.040   1.263   4.908  0.1788 -0.1602 -0.6104
  248PVA    H9942155   3.080   1.222   4.814  1.0177  0.1520 -0.3948
  248PVA    O1742156   3.144   1.244   4.997 -0.6981 -1.4224 -0.3349
  248PVA   H10042157   3.169   1.335   5.020  0.9322 -2.0788  0.6870
  248PVA    C5142158   2.931   1.148   4.930  0.6798  0.2550 -0.6656
  248PVA   H10142159   2.971   1.068   4.866  3.6223 -0.2951  1.6228
  248PVA   H10242160   2.840   1.163   4.871  1.0094  0.4300 -1.1392
  249PVA     C142161   2.155   1.783   7.310 -0.5548  0.6025 -1.3504
  249PVA     H142162   2.122   1.740   7.405 -1.7027 -0.3762 -2.1441
  249PVA     H242163   2.263   1.798   7.307 -0.9657  4.3616 -1.5014
  249PVA     C242164   2.092   1.928   7.363  0.2445  0.4073 -0.5566
  249PVA     H342165   2.055   1.967   7.267 -0.2762 -1.3534 -1.1156
  249PVA     O142166   1.978   1.902   7.446  0.0866 -0.0817  0.0238
  249PVA     H442167   1.902   1.911   7.386 -1.2843  0.3727  1.7538
  249PVA     C342168   2.189   2.044   7.433 -0.7566 -0.2596 -1.1752
  249PVA     H542169   2.279   2.028   7.372 -0.7974 -1.7125 -0.9008
  249PVA     H642170   2.207   1.997   7.531 -2.7078 -0.0238 -0.6668
  249PVA     C442171   2.161   2.208   7.425 -0.2387 -0.2029 -0.6190
  249PVA     H742172   2.171   2.234   7.319 -3.3335 -2.6928 -1.6780
  249PVA     H842173   2.051   2.209   7.433 -0.2624  0.9810 -0.9292
  249PVA     C542174   2.230   2.338   7.505  0.5304 -1.2400 -0.2040
  249PVA     H942175   2.166   2.359   7.592  1.0927  3.9322 -0.7589
  249PVA     O242176   2.362   2.306   7.545  0.9312  0.6676  0.2623
  249PVA    H1042177   2.430   2.372   7.522  4.7915 -2.3127  1.9900
  249PVA     C642178   2.234   2.503   7.474 -1.0161 -0.8905  0.4140
  249PVA    H1142179   2.188   2.522   7.376  0.6656  0.8666 -0.0876
  249PVA    H1242180   2.158   2.559   7.529  2.1077  1.0043  3.1992
  249PVA     C742181   2.359   2.603   7.517 -0.2148 -0.0487  0.1039
  249PVA    H1342182   2.441   2.552   7.466  1.0943  1.3266  0.7441
  249PVA    H1442183   2.380   2.597   7.624 -0.9817 -0.4791  0.2433
  249PVA     C842184   2.361   2.776   7.480  0.1088  0.5842 -0.5403
  249PVA    H1542185   2.291   2.774   7.395 -3.8745  0.9319  2.4390
  249PVA     O342186   2.280   2.838   7.581 -0.7684 -0.0627  0.6571
  249PVA    H1642187   2.326   2.890   7.648 -2.5532  1.4861  0.7702
  249PVA     C942188   2.488   2.872   7.444  0.1560  0.6473 -0.8745
  249PVA    H1742189   2.547   2.889   7.535 -0.8324  0.9447 -0.2710
  249PVA    H1842190   2.560   2.821   7.380 -0.0270  3.0656 -3.2098
  249PVA    C1042191   2.469   3.020   7.385 -0.1219  0.3692  0.5315
  249PVA    H1942192   2.361   3.039   7.383 -1.0992 -3.9967  0.1179
  249PVA    H2042193   2.493   3.091   7.465  2.8252  1.7315 -1.3937
  249PVA    C1142194   2.532   3.104   7.246  0.0508 -0.2573 -0.5849
  249PVA    H2142195   2.632   3.066   7.220  2.4485  3.8089  1.5863
  249PVA     O442196   2.438   3.081   7.135 -0.7798  0.0580 -0.3537
  249PVA    H2242197   2.431   2.992   7.097 -2.3215  0.6722 -1.6512
  249PVA    C1242198   2.566   3.267   7.233  0.5431 -0.1706  0.5192
  249PVA    H2342199   2.474   3.326   7.221 -1.1763 -1.0414  6.2861
  249PVA    H2442200   2.581   3.283   7.341 -2.3290 -0.4337  1.0472
  249PVA    C1342201   2.696   3.349   7.166 -0.4051 -0.4029  0.1004
  249PVA    H2542202   2.780   3.279   7.155 -0.7311 -1.4940  3.2160
  249PVA    H2642203   2.731   3.406   7.253  2.6380 -0.6337 -0.8480
  249PVA    C1442204   2.728   3.453   7.042 -0.7225  0.2200 -0.9253
  249PVA    H2742205   2.633   3.507   7.056  0.2305  1.4123  1.4856
  249PVA     O542206   2.742   3.385   6.911 -0.7116 -0.0877  0.1774
  249PVA    H2842207   2.745   3.453   6.842  1.1326  0.8372  1.0966
  249PVA    C1542208   2.822   3.591   7.038 -0.3197 -1.0706 -0.7956
  249PVA    H2942209   2.837   3.632   7.138  2.0216  1.7230 -2.1399
  249PVA    H3042210   2.750   3.666   7.002 -0.4638  0.7916  2.9138
  249PVA    C1642211   2.960   3.623   6.943  0.2018  0.0371 -0.6779
  249PVA    H3142212   3.048   3.570   6.983 -1.6118 -2.7900 -0.1695
  249PVA    H3242213   2.952   3.607   6.835  2.9311  2.3925 -1.3588
  249PVA    C1742214   3.016   3.776   6.930 -0.0276  0.2028 -0.3400
  249PVA    H3342215   2.977   3.816   6.836 -0.1500 -2.4347 -1.4930
  249PVA     O642216   2.957   3.852   7.038  0.0923 -0.5911  0.1533
  249PVA    H3442217   3.034   3.851   7.098  0.5701  1.5385 -0.3591
  249PVA    C1842218   3.170   3.830   6.927 -0.6809 -0.9791  0.6777
  249PVA    H3542219   3.213   3.730   6.940 -2.0334 -1.7658 -0.6333
  249PVA    H3642220   3.200   3.881   7.019 -2.3420 -1.4630  1.5385
  249PVA    C1942221   3.240   3.891   6.796 -0.3452  0.5413 -0.4279
  249PVA    H3742222   3.211   3.815   6.722  0.5989 -1.9589  1.6163
  249PVA    H3842223   3.169   3.970   6.770 -1.4978  0.5684  2.4156
  249PVA    C2042224   3.382   3.957   6.795  0.7775 -0.2045 -0.2775
  249PVA    H3942225   3.425   3.910   6.884 -0.0769 -1.8107 -0.6593
  249PVA     O742226   3.365   4.098   6.794 -0.2025  0.0652  0.1604
  249PVA    H4042227   3.439   4.146   6.835  3.2491 -0.7038 -4.4155
  249PVA    C2142228   3.490   3.910   6.686 -0.4610 -0.7301  1.5461
  249PVA    H4142229   3.492   3.804   6.658  0.0284 -0.7584  1.6943
  249PVA    H4242230   3.576   3.900   6.753 -1.6961 -1.8859  3.0538
  249PVA    C2242231   3.564   4.002   6.573  0.6508  0.5393 -0.3657
  249PVA    H4342232   3.575   4.102   6.616  0.4567  0.9551 -1.2673
  249PVA    H4442233   3.493   4.033   6.496  0.9686  2.2618 -0.0129
  249PVA    C2342234   3.696   3.957   6.478  0.9479  0.7266 -1.2595
  249PVA    H4542235   3.652   3.898   6.396 -2.5702  2.3634 -0.7282
  249PVA     O842236   3.802   3.889   6.558  1.0823 -0.0701 -0.1036
  249PVA    H4642237   3.753   3.842   6.628  0.0719 -1.3131 -1.5801
  249PVA    C2442238   3.784   4.053   6.380 -0.1913  0.3906 -0.7115
  249PVA    H4742239   3.859   4.106   6.439  0.2725 -0.5677 -0.4074
  249PVA    H4842240   3.721   4.121   6.323 -1.6819 -0.2848  0.0712
  249PVA    C2542241   3.877   3.996   6.256  0.8264  0.5344 -0.2330
  249PVA    H4942242   3.962   3.940   6.295 -1.3217 -3.1992 -0.3705
  249PVA    H5042243   3.823   3.911   6.211 -2.3569  2.3761 -0.2046
  249PVA    C2642244   3.937   4.082   6.141  0.5698 -0.0336 -0.4198
  249PVA    H5142245   3.966   4.174   6.194 -4.9804  0.0525  3.2934
  249PVA     O942246   3.818   4.120   6.062  0.2318 -0.6942  0.4296
  249PVA    H5242247   3.865   4.151   5.982  0.2601 -1.1419  0.2712
  249PVA    C2742248   4.052   4.023   6.039  1.0172  0.5674 -0.3189
  249PVA    H5342249   4.031   3.916   6.038  1.1145  0.5368  0.2193
  249PVA    H5442250   4.145   4.025   6.098 -0.1810 -2.4873  1.8969
  249PVA    C2842251   4.081   4.085   5.900  0.0328 -0.1936  0.4468
  249PVA    H5542252   4.062   4.192   5.911 -0.8693 -0.5588  2.9027
  249PVA    H5642253   3.994   4.052   5.842  1.0450 -0.8048 -0.7707
  249PVA    C2942254   4.227   4.056   5.821  0.5654 -0.3000  0.7403
  249PVA    H5742255   4.297   4.135   5.851 -0.5470  1.1304 -0.2647
  249PVA    O1042256   4.273   3.924   5.831  0.0080 -0.2599  0.5520
  249PVA    H5842257   4.351   3.918   5.773 -1.8063 -0.0417 -2.1028
  249PVA    C3042258   4.234   4.090   5.657  0.7009  0.0202 -0.6051
  249PVA    H5942259   4.148   4.039   5.610  1.4895 -3.2739  1.2156
  249PVA    H6042260   4.205   4.195   5.643  1.3381  0.7119  2.5740
  249PVA    C3142261   4.367   4.065   5.574  0.4856  0.3391 -0.5175
  249PVA    H6142262   4.395   3.959   5.583  0.6064  0.1046 -2.8581
  249PVA    H6242263   4.441   4.123   5.630 -2.6981  1.0723  3.4013
  249PVA    C3242264   4.397   4.081   5.408  1.0403 -1.4077 -0.6542
  249PVA    H6342265   4.301   4.050   5.363  0.8479 -3.6872  1.1303
  249PVA    O1142266   4.418   4.226   5.395 -0.4253  0.3663  0.7931
  249PVA    H6442267   4.512   4.241   5.415  0.3327 -1.0978 -1.3132
  249PVA    C3342268   4.539   4.022   5.345  0.5377 -0.6094 -0.0364
  249PVA    H6542269   4.620   4.079   5.391 -1.1674  2.0961 -0.1456
  249PVA    H6642270   4.535   3.919   5.382 -0.4270 -0.3555  0.6095
  249PVA    C3442271   4.551   4.010   5.180  0.2589  0.1845 -0.0189
  249PVA    H6742272   4.459   3.952   5.172  0.6538 -0.5192  0.3937
  249PVA    H6842273   4.515   4.099   5.128 -0.5734 -1.0668 -1.7017
  249PVA    C3542274   4.671   3.934   5.099 -0.7006  0.1912  0.0877
  249PVA    H6942275   4.743   4.016   5.112 -0.0488 -0.5245  1.0897
  249PVA    O1242276   4.712   3.810   5.176 -0.7086 -0.6761 -0.1796
  249PVA    H7042277   4.797   3.774   5.145 -1.9989 -1.3670 -3.2353
  249PVA    C3642278   4.657   3.901   4.942  0.8065  1.0696 -0.2552
  249PVA    H7142279   4.620   3.994   4.896 -0.3553 -0.4397 -2.5703
  249PVA    H7242280   4.574   3.831   4.929 -0.9349  2.4450  2.5951
  249PVA    C3742281   4.787   3.874   4.843 -0.5412 -0.1622 -1.0508
  249PVA    H7342282   4.873   3.837   4.901 -0.4306  4.2629  2.0577
  249PVA    H7442283   4.815   3.969   4.797  2.1696  1.1090  2.8114
  249PVA    C3842284   4.774   3.770   4.714 -0.1352 -0.7245 -0.3970
  249PVA    H7542285   4.762   3.667   4.751 -1.5061  0.0652  1.5172
  249PVA    O1342286   4.649   3.790   4.646 -1.1694 -0.3217 -0.4514
  249PVA    H7642287   4.608   3.702   4.643 -3.0534  0.5091 -0.5554
  249PVA    C3942288   4.894   3.778   4.607  0.0353  0.5580  0.4992
  249PVA    H7742289   4.984   3.727   4.644 -0.3041 -0.0095  0.5560
  249PVA    H7842290   4.947   3.874   4.603  1.0423  0.0775  1.4644
  249PVA    C4042291   4.883   3.712   4.458  0.2498  0.0948 -0.1007
  249PVA    H7942292   4.815   3.772   4.397 -0.3344 -0.7971 -0.3379
  249PVA    H8042293   4.840   3.612   4.465 -1.9417  0.9742 -0.3621
  249PVA    C4142294   5.019   3.703   4.351  0.3833  0.2089 -0.6397
  249PVA    H8142295   5.071   3.798   4.367  3.6080 -1.8528  2.9443
  249PVA    O1442296   5.098   3.607   4.413 -0.6123 -0.9533 -0.0956
  249PVA    H8242297   5.079   3.525   4.364 -0.9223 -0.1261 -1.4098
  249PVA    C4242298   5.012   3.663   4.192  0.4799  0.5400 -0.4701
  249PVA    H8342299   4.959   3.567   4.202  1.7967  0.0087  2.8412
  249PVA    H8442300   4.951   3.723   4.124  0.2414  0.0245 -0.7120
  249PVA    C4342301   5.142   3.635   4.105 -0.7428 -0.9103 -0.9366
  249PVA    H8542302   5.211   3.585   4.174  0.1948  3.0027  1.2695
  249PVA    H8642303   5.185   3.734   4.088 -0.1059 -1.3952 -2.2767
  249PVA    C4442304   5.137   3.557   3.959  0.2056 -0.1565 -0.0328
  249PVA    H8742305   5.051   3.606   3.914 -0.4356 -3.2151 -2.4553
  249PVA    O1542306   5.084   3.431   3.977  0.2111 -0.3484 -0.2423
  249PVA    H8842307   4.988   3.444   3.985  0.2007 -0.8122  0.4503
  249PVA    C4542308   5.267   3.547   3.856 -0.4295  0.6009 -0.2784
  249PVA    H8942309   5.351   3.539   3.925  2.2126 -1.1835 -3.4230
  249PVA    H9042310   5.282   3.649   3.820  0.7728  1.6223  2.7826
  249PVA    C4642311   5.259   3.438   3.730 -1.1732 -0.2155  0.9894
  249PVA    H9142312   5.254   3.338   3.775  2.9818 -0.3932  1.4126
  249PVA    H9242313   5.159   3.448   3.686 -1.7195 -4.1951  0.9228
  249PVA    C4742314   5.356   3.429   3.604 -0.9730 -0.6025 -0.2201
  249PVA    H9342315   5.369   3.536   3.584  1.0011 -0.7999 -0.2528
  249PVA    O1642316   5.485   3.376   3.653 -0.4369  0.1546 -0.2169
  249PVA    H9442317   5.560   3.412   3.602 -1.2764  1.5820 -0.4752
  249PVA    C4842318   5.317   3.349   3.460 -0.1750  0.2701  0.3579
  249PVA    H9542319   5.322   3.243   3.487  3.1028  0.3393  0.3852
  249PVA    H9642320   5.214   3.381   3.441 -0.8368 -1.1898  1.3566
  249PVA    C4942321   5.404   3.364   3.329  0.4428 -1.5396  0.1084
  249PVA    H9742322   5.507   3.335   3.355  1.5975  0.7833 -1.4429
  249PVA    H9842323   5.407   3.472   3.306  1.9572 -1.7945 -1.0930
  249PVA    C5042324   5.366   3.297   3.181 -0.8959 -1.6398 -1.0970
  249PVA    H9942325   5.332   3.194   3.195 -1.9342 -0.9244  2.7264
  249PVA    O1742326   5.263   3.366   3.137  1.0002 -0.6673  0.0429
  249PVA   H10042327   5.240   3.330   3.050 -1.4843  3.4596 -1.3048
  249PVA    C5142328   5.474   3.269   3.069 -0.2720 -0.2402  0.0186
  249PVA   H10142329   5.569   3.236   3.114  0.0638  0.2274 -0.3445
  249PVA   H10242330   5.483   3.373   3.036 -0.0481 -0.1162  0.4600
  250PVA     C142331   1.970   1.443   5.748 -0.6714 -0.2324 -0.2036
  250PVA     H142332   2.002   1.423   5.851  1.3506 -0.3978 -0.8094
  250PVA     H242333   1.889   1.373   5.722 -6.1483  5.2889 -0.2524
  250PVA     C242334   1.872   1.575   5.739 -0.3057  0.1877  0.0245
  250PVA     H342335   1.922   1.643   5.668 -0.7142 -0.9785 -1.4203
  250PVA     O142336   1.759   1.540   5.660  0.3774  0.1183 -0.4077
  250PVA     H442337   1.775   1.475   5.589  0.8269 -0.8699  0.5645
  250PVA     C342338   1.811   1.650   5.880 -0.1406 -0.0278 -0.3730
  250PVA     H542339   1.893   1.657   5.952 -1.0575 -3.9032  1.3627
  250PVA     H642340   1.737   1.573   5.908 -1.8955  0.4454 -3.2903
  250PVA     C442341   1.718   1.789   5.887  0.7286 -0.0728 -0.0889
  250PVA     H742342   1.772   1.871   5.838 -0.3795  0.6541 -0.1316
  250PVA     H842343   1.633   1.753   5.828 -1.5626 -1.9585  3.8960
  250PVA     C542344   1.639   1.860   6.023  0.8441  0.3459  1.1849
  250PVA     H942345   1.704   1.864   6.112 -1.2143  1.3289  2.7105
  250PVA     O242346   1.531   1.769   6.060 -0.6347 -0.4240 -0.3134
  250PVA    H1042347   1.458   1.782   5.997 -0.7797  2.2033  0.2931
  250PVA     C642348   1.555   2.004   6.006 -0.1018 -0.8485  0.5121
  250PVA    H1142349   1.585   2.048   5.910 -1.3052 -1.1766 -0.0452
  250PVA    H1242350   1.451   1.983   5.976  0.4907  0.4325 -2.9086
  250PVA     C742351   1.544   2.135   6.113 -0.9548  1.1217 -0.0818
  250PVA    H1342352   1.601   2.102   6.201  0.8454  0.2342 -1.5181
  250PVA    H1442353   1.622   2.204   6.079  0.1559  1.4809  2.8654
  250PVA     C842354   1.425   2.250   6.133 -1.4190  0.8307 -0.3503
  250PVA    H1542355   1.397   2.272   6.029 -1.4160  0.5252 -0.4179
  250PVA     O342356   1.321   2.184   6.186 -0.7676  0.2335 -0.3500
  250PVA    H1642357   1.315   2.208   6.280  4.6380  0.0122  0.3498
  250PVA     C942358   1.438   2.393   6.218 -1.3903 -0.9522  0.2867
  250PVA    H1742359   1.516   2.431   6.150  0.3319 -9.1962 -3.4982
  250PVA    H1842360   1.485   2.379   6.316  1.5990 -2.1445 -1.1917
  250PVA    C1042361   1.323   2.512   6.246  0.6606 -0.0024  0.0162
  250PVA    H1942362   1.294   2.553   6.148  1.9316 -1.5969 -1.0795
  250PVA    H2042363   1.240   2.444   6.268  0.3121 -1.1392 -3.9434
  250PVA    C1142364   1.327   2.641   6.351  0.0556  0.5532 -0.2215
  250PVA    H2142365   1.327   2.596   6.451 -2.5226  3.5562  1.2663
  250PVA     O442366   1.446   2.709   6.334 -0.8664 -0.1661  0.4040
  250PVA    H2242367   1.434   2.805   6.345  3.4822  0.9939 -2.1020
  250PVA    C1242368   1.209   2.759   6.368 -0.3557 -0.4877 -0.6753
  250PVA    H2342369   1.218   2.829   6.284  0.1668 -0.1795 -0.3727
  250PVA    H2442370   1.114   2.714   6.336 -0.6622 -1.9166  1.9869
  250PVA    C1342371   1.187   2.859   6.497  0.1386 -0.1817  0.8710
  250PVA    H2542372   1.269   2.931   6.494 -0.9276  1.0322  0.0008
  250PVA    H2642373   1.205   2.820   6.598  1.5782 -0.8724  0.3829
  250PVA    C1442374   1.049   2.951   6.516 -0.3812 -0.9252  0.6757
  250PVA    H2742375   1.074   3.022   6.436 -0.8150 -2.8208 -1.2141
  250PVA     O542376   0.934   2.893   6.459 -0.2623 -0.3368  0.0370
  250PVA    H2842377   0.863   2.958   6.446  0.9573  1.0827  0.3000
  250PVA    C1542378   1.007   3.028   6.645 -0.4293 -0.6368 -0.2898
  250PVA    H2942379   1.086   2.990   6.711  0.7852  1.9545 -0.1094
  250PVA    H3042380   1.049   3.128   6.626 -3.3076  0.3226 -2.3173
  250PVA    C1642381   0.850   3.054   6.709 -0.6147 -0.5087  0.9035
  250PVA    H3142382   0.789   3.086   6.624  1.4156 -2.1593 -1.2865
  250PVA    H3242383   0.801   2.957   6.717  0.3555 -1.0655  0.2202
  250PVA    C1742384   0.797   3.154   6.842  0.4870  0.4962 -0.3479
  250PVA    H3342385   0.691   3.174   6.823 -0.8756 -3.9776  1.2372
  250PVA     O642386   0.860   3.268   6.830 -0.5356 -0.2569 -0.2024
  250PVA    H3442387   0.849   3.326   6.907 -1.7197  2.7497 -2.4343
  250PVA    C1842388   0.790   3.134   7.015 -0.3757  0.6483  0.7681
  250PVA    H3542389   0.874   3.190   7.057  0.3794 -0.5719  0.9228
  250PVA    H3642390   0.826   3.035   7.046 -3.7509  0.0080  3.2567
  250PVA    C1942391   0.668   3.147   7.117  0.9482  0.4111  0.2528
  250PVA    H3742392   0.627   3.248   7.118 -0.9383 -0.2579 -1.7949
  250PVA    H3842393   0.582   3.094   7.074  1.2657 -1.4150  1.7139
  250PVA    C2042394   0.656   3.082   7.279  0.0659 -0.5064  0.1320
  250PVA    H3942395   0.726   3.134   7.346 -0.4609 -1.6748  1.6482
  250PVA     O742396   0.713   2.945   7.271  0.8024 -0.6570  0.3284
  250PVA    H4042397   0.796   2.955   7.320  1.2213 -2.3589  0.0175
  250PVA    C2142398   0.523   3.076   7.375  0.4028 -0.8310  0.5188
  250PVA    H4142399   0.496   3.183   7.372  0.9978 -0.6915 -0.2811
  250PVA    H4242400   0.449   3.007   7.334 -0.5222  0.8886 -0.8781
  250PVA    C2242401   0.482   3.057   7.544  0.9398  0.3200  1.1053
  250PVA    H4342402   0.496   3.150   7.601  0.5191  1.3058 -0.3691
  250PVA    H4442403   0.561   3.002   7.598  0.7235 -1.0815  0.0341
  250PVA    C2342404   0.339   3.007   7.609 -0.5655 -1.7142 -0.1290
  250PVA    H4542405   0.360   2.901   7.626  0.3051 -1.3882  0.9964
  250PVA     O842406   0.232   3.016   7.515  0.0177  0.2013 -0.1836
  250PVA    H4642407   0.242   3.110   7.493 -1.9840  0.9177  1.6101
  250PVA    C2442408   0.297   3.054   7.754  0.4974  0.2093 -0.5719
  250PVA    H4742409   0.364   3.022   7.834 -0.2795 -1.1189 -0.4230
  250PVA    H4842410   0.281   3.162   7.766 -0.7845 -0.1785  1.7127
  250PVA    C2542411   0.143   3.003   7.809 -0.5734 -0.7763 -0.9321
  250PVA    H4942412   0.067   3.071   7.766 -0.3251  0.3460  0.3474
  250PVA    H5042413   0.117   2.908   7.761 -0.2245 -0.5775 -1.5339
  250PVA    C2642414   0.108   2.969   7.966 -0.4069 -0.5992  0.2431
  250PVA    H5142415   0.156   2.870   7.962 -0.5692 -0.6377 -1.2361
  250PVA     O942416   0.195   3.048   8.046  0.3325 -1.3142 -0.4746
  250PVA    H5242417   0.153   3.054   0.037  3.5633 -1.7216  1.2226
  250PVA    C2742418   7.723   2.968   8.013 -0.4436  0.0358  0.3908
  250PVA    H5342419   7.697   2.863   7.998 -1.2522  0.2834  0.0106
  250PVA    H5442420   7.654   3.025   7.949 -0.3605  0.2267  0.4707
  250PVA    C2842421   7.699   3.010   0.074 -0.3389 -0.8828  0.2421
  250PVA    H5542422   7.750   2.948   0.148 -1.4702 -0.6489  1.2527
  250PVA    H5642423   7.760   3.101   0.075  0.6936 -1.5597  1.2968
  250PVA    C2942424   7.549   3.041   0.139  0.0188  0.6088 -0.6266
  250PVA    H5742425   7.486   3.058   0.051  1.0630 -2.1848 -2.0642
  250PVA    O1042426   7.556   3.163   0.209  0.0115 -0.6458  0.1072
  250PVA    H5842427   7.588   3.225   0.141 -2.0902  1.5999  1.0136
  250PVA    C3042428   7.449   2.937   0.224  0.3204 -0.8117 -0.1867
  250PVA    H5942429   7.396   2.872   0.153 -1.4266 -0.0384  0.3413
  250PVA    H6042430   7.509   2.871   0.286  0.0159 -0.2282  0.7516
  250PVA    C3142431   7.326   3.014   0.311 -0.3756 -0.2755 -0.6274
  250PVA    H6142432   7.251   3.053   0.240 -0.9964  2.2372  1.2653
  250PVA    H6242433   7.376   3.100   0.357 -1.1504  0.2381 -0.7028
  250PVA    C3242434   7.228   2.935   0.410 -0.7721 -0.0835  0.3611
  250PVA    H6342435   7.299   2.878   0.472  1.4702  1.7536 -0.4133
  250PVA    O1142436   7.166   2.844   0.326  0.0843  0.1637 -0.3256
  250PVA    H6442437   7.201   2.754   0.340 -0.6892  0.0731  1.3957
  250PVA    C3342438   7.095   2.998   0.486 -0.0749 -0.0793  0.4402
  250PVA    H6542439   7.028   3.030   0.405  2.4666 -0.3929 -1.9562
  250PVA    H6642440   7.127   3.092   0.534  1.3073 -2.5238  4.8158
  250PVA    C3442441   7.023   2.915   0.604  0.3800 -1.2059  0.5046
  250PVA    H6742442   7.000   2.811   0.577 -1.6409 -0.5214 -0.5938
  250PVA    H6842443   7.111   2.909   0.670  0.6269  0.0952  0.3149
  250PVA    C3542444   6.892   2.990   0.677 -0.9439  0.9699 -0.5695
  250PVA    H6942445   6.923   3.092   0.704 -1.7282  1.7013 -2.2605
  250PVA    O1242446   6.796   2.992   0.573 -0.4598 -0.6006 -0.7697
  250PVA    H7042447   6.798   2.900   0.540 -0.8255 -0.3419 -1.5320
  250PVA    C3642448   6.840   2.942   0.825  1.0478  0.3711  0.1283
  250PVA    H7142449   6.914   2.937   0.906  3.8870 -2.3902 -2.3546
  250PVA    H7242450   6.822   2.835   0.808  4.3669 -0.6639  2.1536
  250PVA    C3742451   6.695   3.009   0.876 -0.1241  0.5933 -0.1808
  250PVA    H7342452   6.662   3.096   0.818  3.0078  0.4668 -2.4077
  250PVA    H7442453   6.626   2.929   0.850  3.2142 -2.8712  0.6892
  250PVA    C3842454   6.654   3.027   1.035  0.4470  0.6320 -0.5473
  250PVA    H7542455   6.713   3.108   1.081 -0.6123  0.5510  1.0247
  250PVA    O1342456   6.703   2.907   1.107 -0.1660  1.0377  0.0960
  250PVA    H7642457   6.678   2.824   1.064 -4.6265  1.1370  1.9495
  250PVA    C3942458   6.504   3.033   1.099 -0.1675 -0.0431 -0.3581
  250PVA    H7742459   6.458   2.935   1.076 -0.0377 -0.3684  0.7103
  250PVA    H7842460   6.451   3.111   1.043 -2.2262  0.8191  2.5455
  250PVA    C4042461   6.479   3.087   1.249 -0.8938  0.3176  0.4189
  250PVA    H7942462   6.559   3.050   1.313  2.6386  1.1650 -3.1329
  250PVA    H8042463   6.513   3.191   1.249  0.5902 -0.1326 -1.0075
  250PVA    C4142464   6.335   3.069   1.325  0.4313 -0.0412 -0.5182
  250PVA    H8142465   6.274   3.151   1.286 -1.7067 -0.9603  0.7278
  250PVA    O1442466   6.272   2.952   1.302  0.1795  1.1360  0.4608
  250PVA    H8242467   6.252   2.959   1.207  1.7238 -1.4479 -0.1695
  250PVA    C4242468   6.326   3.091   1.484  1.1685  0.1311 -0.5277
  250PVA    H8342469   6.410   3.052   1.542  2.6240 -0.1355 -2.7191
  250PVA    H8442470   6.330   3.200   1.499  0.4153  0.0927 -0.0187
  250PVA    C4342471   6.190   3.044   1.564 -1.2786  0.0319  0.1940
  250PVA    H8542472   6.196   2.935   1.575 -1.6363 -0.2368 -1.8976
  250PVA    H8642473   6.106   3.086   1.507 -0.0312  0.9867 -1.0143
  250PVA    C4442474   6.163   3.115   1.715 -0.1272  0.5513 -0.1488
  250PVA    H8742475   6.151   3.224   1.708  1.9612  0.9497  1.5127
  250PVA    O1542476   6.279   3.075   1.793  0.5522 -0.4963 -0.3503
  250PVA    H8842477   6.230   3.065   1.877  1.0902  0.7211  0.1262
  250PVA    C4542478   6.035   3.048   1.807 -0.6147  0.2336  0.4446
  250PVA    H8942479   6.050   2.940   1.822 -0.0729  0.6309  3.3562
  250PVA    H9042480   5.940   3.031   1.755 -2.2205  2.5457  2.4072
  250PVA    C4642481   6.002   3.092   1.967  0.0543 -0.5144  0.7366
  250PVA    H9142482   6.098   3.079   2.019  0.7316 -2.2831 -0.8544
  250PVA    H9242483   5.995   3.201   1.956  2.0626 -0.4047  0.2012
  250PVA    C4742484   5.904   3.028   2.080  0.3132  0.5747  0.4438
  250PVA    H9342485   5.947   2.938   2.124  1.0382 -0.0782 -1.4948
  250PVA    O1642486   5.787   2.980   2.021 -0.3505  1.0660  0.7318
  250PVA    H9442487   5.755   2.906   2.076 -1.8106  2.2646  1.5339
  250PVA    C4842488   5.855   3.121   2.203  0.4270  0.2467  0.5513
  250PVA    H9542489   5.951   3.165   2.234  1.6172  0.4218 -2.9859
  250PVA    H9642490   5.778   3.189   2.163  0.7030 -0.1197 -0.6364
  250PVA    C4942491   5.793   3.062   2.333  0.2772  0.0850 -0.2298
  250PVA    H9742492   5.759   2.964   2.297  6.0408 -1.8422 -1.6021
  250PVA    H9842493   5.878   3.050   2.401 -0.8003 -2.4502  0.7757
  250PVA    C5042494   5.672   3.130   2.428 -0.9227 -0.3794 -0.8284
  250PVA    H9942495   5.688   3.233   2.395 -2.2462  0.5192  1.1397
  250PVA    O1742496   5.553   3.102   2.370  0.7204 -0.1304  0.0443
  250PVA   H10042497   5.544   3.010   2.338 -0.4887  0.6020 -1.9401
  250PVA    C5142498   5.657   3.126   2.591  0.2850  0.3316  0.5390
  250PVA   H10142499   5.656   3.021   2.623 -3.7770  0.4007  1.1687
  250PVA   H10242500   5.748   3.158   2.642 -0.0468 -1.2586  2.2155
  251PVA     C142501   2.499   1.492   5.726 -0.7148  0.7656 -0.3317
  251PVA     H142502   2.477   1.507   5.833  6.4689  2.1250  1.4970
  251PVA     H242503   2.518   1.595   5.692 -0.8143  1.8814  2.6656
  251PVA     C242504   2.644   1.427   5.705 -0.6445 -0.1829  0.6225
  251PVA     H342505   2.643   1.359   5.791 -0.8121  1.7228  2.2023
  251PVA     O142506   2.749   1.529   5.708  0.9057 -0.0377 -1.0624
  251PVA     H442507   2.776   1.527   5.801  1.6190  0.4001 -1.2467
  251PVA     C342508   2.681   1.330   5.588 -0.2458 -0.2343  0.1056
  251PVA     H542509   2.596   1.327   5.519  0.6245 -5.4068 -1.1392
  251PVA     H642510   2.675   1.231   5.634 -0.6830 -0.0336  0.4828
  251PVA     C442511   2.818   1.338   5.503  0.4854 -0.4416 -0.9766
  251PVA     H742512   2.790   1.367   5.402 -1.3497  4.2477  0.6128
  251PVA     H842513   2.882   1.419   5.541  2.0570 -1.0756 -2.1612
  251PVA     C542514   2.896   1.208   5.465 -0.7626  0.1908 -0.1247
  251PVA     H942515   2.906   1.213   5.356  0.0655 -0.6080 -0.0992
  251PVA     O242516   2.832   1.091   5.511  0.1042  0.0648  0.4986
  251PVA    H1042517   2.877   1.015   5.470  1.8673  0.7434  1.0772
  251PVA     C642518   3.043   1.158   5.501 -0.7220 -0.5631 -0.3166
  251PVA    H1142519   3.106   1.248   5.506 -2.9407  1.0336  0.6194
  251PVA    H1242520   3.058   1.116   5.601  1.1618  0.4346 -0.1246
  251PVA     C742521   3.097   1.059   5.407  0.0753  0.6439 -0.4319
  251PVA    H1342522   3.109   1.123   5.319  0.1543 -1.6122 -2.1367
  251PVA    H1442523   3.023   0.980   5.390 -0.6261  1.4135 -1.0419
  251PVA     C842524   3.233   0.999   5.438 -0.3343 -0.0221  0.3064
  251PVA    H1542525   3.218   0.925   5.518  2.8938 -2.5266 -1.1929
  251PVA     O342526   3.331   1.097   5.480 -0.2396  0.3061 -0.0525
  251PVA    H1642527   3.292   1.176   5.521 -0.4583 -0.0878  0.4956
  251PVA     C942528   3.309   0.920   5.312  0.5201 -0.3697  0.8357
  251PVA    H1742529   3.248   0.923   5.221  1.8315 -5.6492 -0.5490
  251PVA    H1842530   3.389   0.995   5.303 -0.7987  1.3478  2.4561
  251PVA    C1042531   3.364   0.777   5.325 -0.0517 -0.2398 -1.2758
  251PVA    H1942532   3.428   0.777   5.414  0.6016 -1.0455 -1.7323
  251PVA    H2042533   3.267   0.726   5.330 -2.5452  3.9918 -1.9850
  251PVA    C1142534   3.441   0.728   5.202  0.5958 -0.6107 -0.0949
  251PVA    H2142535   3.375   0.734   5.115 -1.4117  2.0819  1.4499
  251PVA     O442536   3.560   0.799   5.180  1.1334 -0.1603  0.2372
  251PVA    H2242537   3.551   0.853   5.099 -1.4897  0.2834  0.7390
  251PVA    C1242538   3.487   0.575   5.232 -1.2692 -0.3328  0.1464
  251PVA    H2342539   3.572   0.595   5.299 -1.4672 -1.8499  0.8986
  251PVA    H2442540   3.415   0.507   5.279 -0.7734 -0.6525  0.4496
  251PVA    C1342541   3.535   0.500   5.098  0.2327 -0.1044  0.2401
  251PVA    H2542542   3.622   0.555   5.060 -0.3889  1.4226  0.9472
  251PVA    H2642543   3.458   0.533   5.027  0.9561  3.7035  1.0252
  251PVA    C1442544   3.572   0.350   5.099 -0.6291 -0.7614  0.3494
  251PVA    H2742545   3.486   0.309   5.046 -0.6684  1.6478 -1.6372
  251PVA     O542546   3.581   0.287   5.229  0.2284  0.3503 -0.8150
  251PVA    H2842547   3.495   0.302   5.273 -1.0332 -1.8075 -2.3376
  251PVA    C1542548   3.685   0.312   5.004 -0.2773 -1.2902  1.2134
  251PVA    H2942549   3.776   0.363   5.037 -1.2454  2.2951 -1.1135
  251PVA    H3042550   3.673   0.364   4.908  2.7491 -1.4500  0.6474
  251PVA    C1642551   3.707   0.167   4.964 -0.8059  0.3491  0.8949
  251PVA    H3142552   3.606   0.125   4.971 -1.8135  2.7636  2.1432
  251PVA    H3242553   3.748   0.162   4.863  3.5446  1.7684  2.3635
  251PVA    C1742554   3.821   0.098   5.052  0.4074 -0.0452  0.9105
  251PVA    H3342555   3.910   0.162   5.057  0.1135  0.3033  4.8297
  251PVA     O642556   3.780   0.063   5.175 -0.0493 -0.6755 -0.2033
  251PVA    H3442557   3.704   0.115   5.207  0.8736  1.6335 -1.5181
  251PVA    C1842558   3.878   7.649   4.985  0.7717  0.0241  0.8351
  251PVA    H3542559   3.914   7.663   4.882  1.9141  0.6603  1.2965
  251PVA    H3642560   3.793   7.581   4.972  0.1461 -0.1355  4.6730
  251PVA    C1942561   4.008   7.585   5.061 -1.1472  0.4902  0.4838
  251PVA    H3742562   4.036   7.500   4.998 -3.1578 -0.2856  0.5548
  251PVA    H3842563   3.971   7.545   5.156  1.3479  1.4572  1.9489
  251PVA    C2042564   4.134   7.678   5.071 -0.4880  0.4985 -0.0624
  251PVA    H3942565   4.204   7.630   5.141  1.1607  3.6922  0.6917
  251PVA     O742566   4.113   0.109   5.141 -0.7778 -0.0047  0.1091
  251PVA    H4042567   4.085   0.068   5.225 -2.5553 -1.8142 -1.2424
  251PVA    C2142568   4.213   0.028   4.947 -0.4354 -0.4304 -0.3476
  251PVA    H4142569   4.140   0.085   4.888  1.4044  4.8562  1.8331
  251PVA    H4242570   4.234   7.614   4.904  0.3436 -1.0296  1.3390
  251PVA    C2242571   4.336   0.117   4.969  1.2351  0.7356  0.1909
  251PVA    H4342572   4.325   0.202   5.038  3.6693  0.9764  0.3683
  251PVA    H4442573   4.416   0.066   5.025  0.0418 -1.8814 -0.3210
  251PVA    C2342574   4.399   0.167   4.839 -0.2600 -1.4881  0.0129
  251PVA    H4542575   4.479   0.097   4.815  2.5641  1.5891 -0.3138
  251PVA     O842576   4.307   0.160   4.727  0.1183  1.6093 -0.0170
  251PVA    H4642577   4.334   0.221   4.656  1.0763 -0.1684 -1.2545
  251PVA    C2442578   4.477   0.303   4.861 -0.5449  0.3736  0.5691
  251PVA    H4742579   4.572   0.295   4.915 -2.4197 -4.5688  3.8596
  251PVA    H4842580   4.427   0.377   4.924 -1.8551  1.9151 -2.1009
  251PVA    C2542581   4.489   0.389   4.727 -0.1960 -0.2710 -0.1069
  251PVA    H4942582   4.548   0.332   4.654 -2.0439 -3.6265  0.8322
  251PVA    H5042583   4.393   0.404   4.678  0.2856  1.0487 -0.7150
  251PVA    C2642584   4.550   0.530   4.748 -1.3121  1.3580  0.7378
  251PVA    H5142585   4.571   0.535   4.855 -4.2215  1.7288  1.3927
  251PVA     O942586   4.677   0.530   4.681 -0.9751 -1.4061 -0.0312
  251PVA    H5242587   4.653   0.561   4.591  1.8859 -1.5014 -0.9174
  251PVA    C2742588   4.456   0.645   4.695 -0.3973 -1.1077  0.8183
  251PVA    H5342589   4.348   0.627   4.699 -0.2821 -1.7347  1.1080
  251PVA    H5442590   4.475   0.670   4.590 -2.7678  1.9421  0.9643
  251PVA    C2842591   4.477   0.759   4.799  0.3253 -1.5012  0.3088
  251PVA    H5542592   4.477   0.711   4.898 -1.4393  3.2843  2.9342
  251PVA    H5642593   4.561   0.821   4.764 -0.4848 -0.0506  0.8540
  251PVA    C2942594   4.385   0.878   4.834  0.0132 -0.2306  0.2465
  251PVA    H5742595   4.398   0.944   4.747  0.8170  0.4800  0.8889
  251PVA    O1042596   4.256   0.836   4.867 -0.4536 -1.5983  1.3923
  251PVA    H5842597   4.220   0.903   4.927 -1.4096 -0.1884 -0.6691
  251PVA    C3042598   4.444   0.943   4.957 -1.1321  0.2478  0.3422
  251PVA    H5942599   4.380   1.018   5.006 -1.5880  1.3788 -1.8651
  251PVA    H6042600   4.464   0.861   5.028 -0.6186  1.6847  1.9388
  251PVA    C3142601   4.578   1.023   4.937  0.7423  0.2449  0.6303
  251PVA    H6142602   4.660   0.952   4.921 -0.9514 -1.5698 -0.3056
  251PVA    H6242603   4.563   1.078   4.843 -1.3793  1.1453  1.4169
  251PVA    C3242604   4.620   1.117   5.057 -0.3934  0.4407 -1.0150
  251PVA    H6342605   4.532   1.177   5.082  0.3529  2.5947 -3.1447
  251PVA    O1142606   4.667   1.036   5.169 -0.0539  1.1036 -0.6394
  251PVA    H6442607   4.673   1.082   5.255 -1.1901 -0.0479  0.1042
  251PVA    C3342608   4.738   1.220   5.027 -0.6868  0.7218 -1.2084
  251PVA    H6542609   4.697   1.322   5.028 -1.4890  0.4360 -2.4410
  251PVA    H6642610   4.788   1.221   4.930  1.8741  3.1897  0.0111
  251PVA    C3442611   4.862   1.214   5.129 -0.2127  1.3285 -0.5003
  251PVA    H6742612   4.826   1.251   5.226  1.1892  0.0159  0.5638
  251PVA    H6842613   4.892   1.110   5.142 -2.4374  0.9089  2.2775
  251PVA    C3542614   4.982   1.304   5.073  0.8486 -1.0332 -1.2493
  251PVA    H6942615   4.942   1.407   5.073  1.4000 -0.6199  3.2632
  251PVA    O1242616   5.043   1.268   4.945  0.7813  0.4762  0.8596
  251PVA    H7042617   4.970   1.273   4.881  0.0334  3.4691  1.8061
  251PVA    C3642618   5.098   1.309   5.181  1.0017  0.5643 -0.3368
  251PVA    H7142619   5.154   1.216   5.167 -3.0197 -1.6288 -4.4773
  251PVA    H7242620   5.045   1.303   5.277  0.9425 -1.5746 -0.4519
  251PVA    C3742621   5.208   1.417   5.159 -0.1727 -0.4048  0.8674
  251PVA    H7342622   5.258   1.402   5.063 -0.9405 -1.3063  0.5873
  251PVA    H7442623   5.161   1.516   5.172 -2.2629 -1.5203  2.5307
  251PVA    C3842624   5.327   1.411   5.259  0.3853  0.2390 -0.3354
  251PVA    H7542625   5.295   1.411   5.364 -1.9033  1.9609 -0.9716
  251PVA    O1342626   5.398   1.281   5.232 -0.9156 -0.4690  0.1321
  251PVA    H7642627   5.406   1.249   5.323 -2.4190  2.5607  1.4680
  251PVA    C3942628   5.428   1.525   5.253 -0.3201  0.0476  0.4954
  251PVA    H7742629   5.377   1.622   5.267 -1.5887 -0.2154 -1.7884
  251PVA    H7842630   5.463   1.549   5.151 -3.8592  0.9469 -0.6402
  251PVA    C4042631   5.560   1.510   5.332 -0.0745  0.1194 -0.4354
  251PVA    H7942632   5.531   1.500   5.437  0.1760  0.9827 -0.2805
  251PVA    H8042633   5.616   1.421   5.298  2.7924  2.2833 -1.8558
  251PVA    C4142634   5.666   1.625   5.322 -0.0331  0.3747  1.5393
  251PVA    H8142635   5.687   1.650   5.217  0.9956 -0.0516  1.6372
  251PVA    O1442636   5.613   1.737   5.378 -0.4888 -0.7291  0.1449
  251PVA    H8242637   5.559   1.765   5.302 -1.5030 -2.4746  0.1759
  251PVA    C4242638   5.802   1.579   5.390 -0.5943  0.3634  1.0064
  251PVA    H8342639   5.797   1.539   5.492 -1.8541  0.5043  1.0137
  251PVA    H8442640   5.851   1.504   5.326  1.0651  0.6922  1.8299
  251PVA    C4342641   5.916   1.677   5.401  0.0864  0.3834  0.4017
  251PVA    H8542642   6.005   1.631   5.447  1.5326  1.9008 -0.7630
  251PVA    H8642643   5.881   1.749   5.476  0.8399  1.0472  0.1345
  251PVA    C4442644   5.948   1.757   5.278  0.9852 -1.4058  0.0654
  251PVA    H8742645   5.857   1.815   5.261  1.3461 -0.5238  0.9966
  251PVA    O1542646   5.988   1.674   5.172 -0.1092 -1.0788  0.2114
  251PVA    H8842647   5.949   1.585   5.175 -1.3385 -0.7157  5.6833
  251PVA    C4542648   6.061   1.859   5.308 -0.5217  0.4920 -0.1387
  251PVA    H8942649   6.054   1.893   5.412  1.0933 -3.3361  1.4010
  251PVA    H9042650   6.156   1.805   5.299  0.4528  2.1617 -0.3440
  251PVA    C4642651   6.060   1.983   5.210  0.1114  0.5252  0.4462
  251PVA    H9142652   6.076   1.947   5.108 -0.6137 -3.1002  1.4554
  251PVA    H9242653   5.956   2.020   5.212  1.0296  3.3816  0.0838
  251PVA    C4742654   6.154   2.098   5.242 -0.5157 -0.2684 -0.0455
  251PVA    H9342655   6.127   2.181   5.176 -1.9726 -2.3531 -2.2274
  251PVA    O1642656   6.148   2.151   5.365  0.7089  0.2615 -1.4417
  251PVA    H9442657   6.234   2.179   5.399 -1.4217  5.4695  0.6807
  251PVA    C4842658   6.302   2.071   5.208 -0.3626 -0.8499 -0.2672
  251PVA    H9542659   6.313   1.986   5.139  0.2059 -1.9219  1.1007
  251PVA    H9642660   6.367   2.031   5.286  1.0779  1.5431 -0.1290
  251PVA    C4942661   6.377   2.198   5.161 -1.7342 -0.4234 -0.5353
  251PVA    H9742662   6.357   2.236   5.060  0.3783  4.4764  0.6090
  251PVA    H9842663   6.364   2.277   5.235  3.1439 -1.7583  2.1380
  251PVA    C5042664   6.541   2.192   5.174  0.9846 -0.5511  0.0483
  251PVA    H9942665   6.555   2.136   5.267  0.0229 -0.3201  0.3446
  251PVA    O1742666   6.607   2.122   5.070 -0.4359 -0.2658 -0.4080
  251PVA   H10042667   6.582   2.170   4.989 -0.2861 -1.2941 -1.0835
  251PVA    C5142668   6.617   2.320   5.201  0.5423 -1.0512  0.9722
  251PVA   H10142669   6.724   2.296   5.205  0.1830 -2.7783  0.9330
  251PVA   H10242670   6.599   2.369   5.104 -3.0511  1.0515  2.5314
  252PVA     C142671   4.640   3.083   3.223 -0.2603 -1.0797 -0.4116
  252PVA     H142672   4.705   3.170   3.216 -3.2853  1.3856 -0.0460
  252PVA     H242673   4.547   3.141   3.217  1.3641  1.7784  0.5872
  252PVA     C242674   4.614   3.034   3.369  0.2572 -0.9170  0.5363
  252PVA     H342675   4.546   2.953   3.341 -0.0417  0.2867 -2.6759
  252PVA     O142676   4.737   2.987   3.419 -0.4193 -0.6139  0.1891
  252PVA     H442677   4.726   2.970   3.514  0.9435 -1.6186  0.2049
  252PVA     C342678   4.557   3.149   3.467 -0.2247 -0.2684  0.6986
  252PVA     H542679   4.467   3.170   3.408 -1.3764 -5.0947  0.2840
  252PVA     H642680   4.626   3.234   3.457 -0.2781 -0.4234 -1.4306
  252PVA     C442681   4.510   3.127   3.615  0.2272  0.2773  0.3173
  252PVA     H742682   4.498   3.020   3.637  2.0485 -0.1768 -0.6530
  252PVA     H842683   4.597   3.153   3.677  1.6471  1.1463 -1.9111
  252PVA     C542684   4.389   3.204   3.680  0.5204  0.7320  0.5145
  252PVA     H942685   4.394   3.309   3.650  1.8321  0.0734 -1.8257
  252PVA     O242686   4.267   3.142   3.647  0.3908  0.3497 -1.0653
  252PVA    H1042687   4.219   3.193   3.579  1.1163  2.4189 -0.1037
  252PVA     C642688   4.372   3.231   3.839 -0.0027  1.0905  0.1216
  252PVA    H1142689   4.408   3.141   3.889 -0.5502  3.0930  4.6515
  252PVA    H1242690   4.440   3.315   3.859  0.6468  0.2918  1.4752
  252PVA     C742691   4.230   3.267   3.891 -0.1358  0.7570 -0.8213
  252PVA    H1342692   4.160   3.192   3.850  0.1551  0.3889 -0.6525
  252PVA    H1442693   4.221   3.357   3.829 -3.5407  1.3826  0.3692
  252PVA     C842694   4.190   3.254   4.047  0.6750 -1.3265  0.1677
  252PVA    H1542695   4.190   3.147   4.075  2.0947 -1.4637 -0.3102
  252PVA     O342696   4.268   3.328   4.129  0.0504 -0.4728  0.3850
  252PVA    H1642697   4.293   3.405   4.074  2.1781  0.9181  3.0342
  252PVA     C942698   4.031   3.285   4.084 -0.2323  0.4396  0.6280
  252PVA    H1742699   3.978   3.190   4.067 -0.6643  0.6759  0.6346
  252PVA    H1842700   3.985   3.346   4.006 -2.9731 -0.0896  1.7148
  252PVA    C1042701   3.970   3.335   4.227 -0.2324  0.2820  0.1540
  252PVA    H1942702   3.949   3.245   4.286 -1.3344  0.4183 -0.0117
  252PVA    H2042703   4.048   3.378   4.291 -0.4457  3.5935 -1.6032
  252PVA    C1142704   3.821   3.399   4.241  0.4737 -0.3623 -0.5102
  252PVA    H2142705   3.825   3.492   4.183  2.2967  0.7754  1.3098
  252PVA     O442706   3.718   3.312   4.177 -0.7382  0.6214 -0.4083
  252PVA    H2242707   3.761   3.256   4.110 -0.4436  1.1373 -0.6601
  252PVA    C1242708   3.764   3.456   4.389 -0.7244  0.4592  0.1251
  252PVA    H2342709   3.730   3.379   4.460 -1.0717 -0.4807 -1.0311
  252PVA    H2442710   3.849   3.488   4.451 -3.1693  4.0893  1.9667
  252PVA    C1342711   3.650   3.565   4.367 -0.8074 -0.5456  1.4490
  252PVA    H2542712   3.601   3.531   4.275  3.2815  0.2672 -1.2735
  252PVA    H2642713   3.712   3.650   4.339  1.0721 -1.8339  1.5272
  252PVA    C1442714   3.545   3.619   4.472  0.0792  0.7833 -0.8014
  252PVA    H2742715   3.484   3.530   4.495  2.2716  0.0036  2.7642
  252PVA     O542716   3.606   3.655   4.596  0.0794 -0.0296  0.3310
  252PVA    H2842717   3.697   3.677   4.570  0.5182 -0.4723  1.4202
  252PVA    C1542718   3.452   3.742   4.413  0.1873  0.1214 -1.4438
  252PVA    H2942719   3.469   3.753   4.305  1.4785 -0.4016 -1.3134
  252PVA    H3042720   3.510   3.829   4.447 -0.8753  0.2319  0.1688
  252PVA    C1642721   3.294   3.741   4.459 -0.5212  0.8333 -0.4793
  252PVA    H3142722   3.266   3.636   4.446  4.9640 -0.7917 -2.2566
  252PVA    H3242723   3.286   3.747   4.568  2.0362 -0.7402 -0.1234
  252PVA    C1742724   3.184   3.839   4.398 -1.0912  0.5778  0.5079
  252PVA    H3342725   3.153   3.925   4.460 -5.4160 -0.5531  0.2392
  252PVA     O642726   3.238   3.909   4.287  0.4855  0.6016  0.9526
  252PVA    H3442727   3.309   3.973   4.306  0.2713  2.0910 -2.4846
  252PVA    C1842728   3.040   3.791   4.368  0.2444 -1.1382  0.5649
  252PVA    H3542729   3.046   3.755   4.264  0.5158 -0.5054  0.3570
  252PVA    H3642730   3.027   3.690   4.409 -1.3448 -1.4450 -0.5807
  252PVA    C1942731   2.910   3.876   4.381 -0.6624 -0.3210 -0.7651
  252PVA    H3742732   2.920   3.943   4.295 -0.7311  2.2707  1.1386
  252PVA    H3842733   2.911   3.945   4.467  0.7720 -0.9656 -0.2285
  252PVA    C2042734   2.769   3.814   4.358  1.0117 -0.4099  0.1225
  252PVA    H3942735   2.786   3.719   4.412 -1.4843  0.5831  2.9296
  252PVA     O742736   2.759   3.783   4.225  0.3848 -1.0866 -0.9452
  252PVA    H4042737   2.685   3.840   4.199 -0.1178 -1.2549  0.0823
  252PVA    C2142738   2.628   3.880   4.422 -0.9793 -0.0067  0.2664
  252PVA    H4142739   2.608   3.965   4.356 -2.0494 -0.8026 -0.4698
  252PVA    H4242740   2.636   3.922   4.523 -2.3771 -1.5711  1.0656
  252PVA    C2242741   2.505   3.785   4.421 -0.4550 -0.3612 -0.3319
  252PVA    H4342742   2.462   3.769   4.322  0.9192  1.6465 -1.3125
  252PVA    H4442743   2.536   3.692   4.469  0.6698  0.3578  0.3907
  252PVA    C2342744   2.379   3.852   4.488  0.4888  1.3452  0.0387
  252PVA    H4542745   2.391   3.847   4.597  1.7665  3.7673  0.0775
  252PVA     O842746   2.370   3.998   4.459  1.4355  0.5222  0.2070
  252PVA    H4642747   2.303   4.011   4.391  0.6964  0.9792  0.9972
  252PVA    C2442748   2.234   3.781   4.459  0.1900 -0.2536 -0.4394
  252PVA    H4742749   2.247   3.672   4.465 -0.4810 -0.4447 -1.9483
  252PVA    H4842750   2.226   3.806   4.352  1.1496 -0.6617 -0.6198
  252PVA    C2542751   2.106   3.847   4.533 -0.9707  0.2362  0.4095
  252PVA    H4942752   2.099   3.956   4.522 -3.9624  0.0754  0.1415
  252PVA    H5042753   2.136   3.844   4.638 -1.3489  4.0079  0.7826
  252PVA    C2642754   1.965   3.780   4.492 -0.2167  0.1475  0.8367
  252PVA    H5142755   1.961   3.672   4.472 -1.9415 -0.1886  2.6332
  252PVA     O942756   1.920   3.843   4.368 -0.0867 -0.0340 -1.0621
  252PVA    H5242757   1.854   3.786   4.326 -0.9443 -3.8296  4.3875
  252PVA    C2742758   1.844   3.780   4.594 -0.3782 -0.5798  0.2129
  252PVA    H5342759   1.873   3.758   4.698 -1.7429 -3.3858  0.1021
  252PVA    H5442760   1.814   3.885   4.589  0.8858 -0.2727 -1.5860
  252PVA    C2842761   1.723   3.685   4.558  0.6847 -0.0856  0.6936
  252PVA    H5542762   1.754   3.621   4.475 -0.9898 -2.8272  1.9936
  252PVA    H5642763   1.646   3.749   4.514  0.1858 -1.8396 -1.1350
  252PVA    C2942764   1.659   3.588   4.666  0.4231 -0.7046 -0.1492
  252PVA    H5742765   1.652   3.657   4.751 -2.7871  1.5580 -2.0114
  252PVA    O1042766   1.744   3.478   4.676  0.0539  0.2421  0.4635
  252PVA    H5842767   1.779   3.495   4.765 -2.0702  0.0410  1.3897
  252PVA    C3042768   1.509   3.535   4.643  0.1205 -0.6831 -0.0165
  252PVA    H5942769   1.455   3.630   4.636 -0.6731 -0.9691  1.8378
  252PVA    H6042770   1.492   3.479   4.549  0.9930 -0.9714 -0.0141
  252PVA    C3142771   1.447   3.457   4.769 -0.9811  0.2758 -0.1295
  252PVA    H6142772   1.479   3.501   4.864  2.0422 -1.5635 -0.1482
  252PVA    H6242773   1.524   3.379   4.776 -0.2234  1.1428  1.9300
  252PVA    C3242774   1.326   3.366   4.779 -0.4523 -1.6155  1.5507
  252PVA    H6342775   1.340   3.259   4.764 -1.6872 -1.4181 -1.9168
  252PVA    O1142776   1.246   3.417   4.671  0.5039 -0.2989 -0.4434
  252PVA    H6442777   1.238   3.362   4.591 -1.7142  0.8171 -1.0832
  252PVA    C3342778   1.250   3.385   4.925  0.3076  0.7583 -0.0286
  252PVA    H6542779   1.183   3.472   4.935 -0.3141  0.1080  2.0546
  252PVA    H6642780   1.329   3.377   5.001  2.3080 -1.6123 -2.1746
  252PVA    C3442781   1.151   3.271   4.966 -1.2779  1.4897  0.2394
  252PVA    H6742782   1.091   3.255   4.875  0.0995 -1.0585 -0.3181
  252PVA    H6842783   1.209   3.180   4.985  2.5604  3.2899 -1.7825
  252PVA    C3542784   1.054   3.302   5.079  1.3675  0.3372 -0.1058
  252PVA    H6942785   1.111   3.250   5.158  3.2110  1.1298 -0.8542
  252PVA    O1242786   1.048   3.433   5.121 -0.5592 -0.1302 -0.0242
  252PVA    H7042787   1.134   3.473   5.143  0.1140 -1.9202  0.8352
  252PVA    C3642788   0.923   3.209   5.121  0.2956  0.6917 -0.9124
  252PVA    H7142789   0.938   3.102   5.103  1.2626  0.1420  2.4337
  252PVA    H7242790   0.925   3.222   5.230 -0.1755 -0.0452 -0.8039
  252PVA    C3742791   0.787   3.278   5.087  0.7699  0.9582  0.7802
  252PVA    H7342792   0.785   3.315   4.984  0.3622 -0.1142  0.3935
  252PVA    H7442793   0.771   3.366   5.151  0.7914  0.8207  0.9768
  252PVA    C3842794   0.664   3.184   5.091  0.2009  0.5891  1.7007
  252PVA    H7542795   0.694   3.109   5.166  0.1987 -3.9673 -2.3300
  252PVA    O1342796   0.667   3.100   4.973 -0.3299 -1.1239 -0.3141
  252PVA    H7642797   0.581   3.069   4.941 -2.4053  1.3215  2.3715
  252PVA    C3942798   0.520   3.240   5.129  1.0616 -0.0721  0.1771
  252PVA    H7742799   0.514   3.266   5.236 -0.1860 -2.5754  0.8030
  252PVA    H7842800   0.514   3.338   5.081  3.3798 -0.3665 -0.8632
  252PVA    C4042801   0.395   3.146   5.083  0.2089 -0.6374 -0.5642
  252PVA    H7942802   0.342   3.180   4.993  3.7282  2.6249 -1.6086
  252PVA    H8042803   0.433   3.048   5.051 -2.4537 -1.7517 -0.6115
  252PVA    C4142804   0.263   3.141   5.177  1.0406  0.6314  0.0757
  252PVA    H8142805   0.301   3.101   5.271 -1.3947  1.6270  1.5759
  252PVA    O1442806   0.256   3.284   5.210 -0.4227 -0.8638  1.4527
  252PVA    H8242807   0.291   3.328   5.130  0.4315 -1.6232  1.3938
  252PVA    C4242808   0.136   3.067   5.119  0.3989 -0.6577 -1.2732
  252PVA    H8342809   0.117   3.117   5.023 -1.2368  4.3975  1.3007
  252PVA    H8442810   0.156   2.960   5.108 -1.2708 -1.2131  0.5407
  252PVA    C4342811   7.764   3.092   5.201  1.3299  0.6348  0.5303
  252PVA    H8542812   7.756   3.200   5.215 -1.8938  0.5674  0.1057
  252PVA    H8642813   0.008   3.039   5.297 -0.6404  0.5441  0.7254
  252PVA    C4442814   7.630   3.055   5.140  0.5718  0.0652  1.2325
  252PVA    H8742815   7.626   2.960   5.087  2.0750 -0.8632  2.6672
  252PVA    O1542816   7.599   3.148   5.034  0.3047 -0.0869 -0.2521
  252PVA    H8842817   7.650   3.109   4.961 -3.8340 -3.0708 -1.9442
  252PVA    C4542818   7.515   3.042   5.253  0.8486 -1.0767  0.5045
  252PVA    H8942819   7.537   2.959   5.322 -0.0584 -0.9620  0.9440
  252PVA    H9042820   7.512   3.135   5.310 -0.2305  0.6349 -2.1576
  252PVA    C4642821   7.384   2.997   5.181 -0.2079 -0.1510  0.9502
  252PVA    H9142822   7.408   2.904   5.129  2.1124  1.5467 -1.3043
  252PVA    H9242823   7.353   3.075   5.110 -0.1086 -2.4568 -1.7960
  252PVA    C4742824   7.278   2.949   5.289  0.4850 -0.5665  0.4020
  252PVA    H9342825   7.324   2.882   5.362  0.6243 -2.1069 -1.0253
  252PVA    O1642826   7.211   3.066   5.345 -0.1451 -0.7611 -0.4300
  252PVA    H9442827   7.125   3.033   5.377 -0.7329 -0.4158 -1.6009
  252PVA    C4842828   7.155   2.866   5.235 -0.5183 -0.3037 -0.8362
  252PVA    H9542829   7.063   2.922   5.217 -0.3777  0.7859  1.5065
  252PVA    H9642830   7.189   2.820   5.141 -0.3033 -0.6883 -0.5710
  252PVA    C4942831   7.115   2.751   5.338  0.0291  1.0651 -0.3604
  252PVA    H9742832   7.084   2.796   5.433  0.4767 -1.5753  1.1534
  252PVA    H9842833   7.196   2.692   5.382  0.2288  0.0560 -1.9897
  252PVA    C5042834   6.979   2.679   5.296  0.2025  0.7268  0.2301
  252PVA    H9942835   6.908   2.757   5.266 -1.0317 -0.5307 -0.2270
  252PVA    O1742836   6.996   2.600   5.170  0.4251 -0.6095  0.2119
  252PVA   H10042837   7.050   2.658   5.114  0.1120 -0.0354  0.5019
  252PVA    C5142838   6.913   2.593   5.418  0.5466  0.3824  0.4003
  252PVA   H10142839   7.001   2.546   5.463 -0.2805  0.7172  2.4759
  252PVA   H10242840   6.878   2.667   5.491  3.8832 -0.2165  2.8507
  253PVA     C142841   4.436   3.028   2.733 -0.4813  0.0176 -0.2375
  253PVA     H142842   4.339   2.981   2.754 -0.1558 -0.9241 -0.7446
  253PVA     H242843   4.439   3.130   2.772 -0.4926 -0.0113 -0.1603
  253PVA     C242844   4.481   3.038   2.578 -0.0790 -0.0806  0.3617
  253PVA     H342845   4.536   2.945   2.559 -0.8518 -0.7758  1.3891
  253PVA     O142846   4.569   3.151   2.568  0.9255  0.8075 -0.0163
  253PVA     H442847   4.640   3.122   2.628 -4.2510 -3.4457  5.2529
  253PVA     C342848   4.362   3.030   2.480 -0.4913  0.2307  0.4605
  253PVA     H542849   4.326   2.927   2.480 -0.5528  0.2447 -0.4376
  253PVA     H642850   4.404   3.044   2.380 -2.0836 -1.1855 -0.4616
  253PVA     C442851   4.237   3.101   2.513  0.1692  0.1346  0.1337
  253PVA     H742852   4.203   3.069   2.612 -2.2268 -0.5847 -0.8477
  253PVA     H842853   4.258   3.209   2.512 -2.7850  0.8634  2.2996
  253PVA     C542854   4.116   3.090   2.412  0.4031  0.3438 -0.1131
  253PVA     H942855   4.097   2.982   2.398 -0.8063  0.8673 -3.1626
  253PVA     O242856   4.137   3.154   2.293  0.4893 -0.0774 -0.0191
  253PVA    H1042857   4.151   3.080   2.231  0.2822  0.3394 -0.5698
  253PVA     C642858   3.987   3.165   2.471  1.0073 -0.1319  0.5474
  253PVA    H1142859   3.975   3.123   2.572  1.5361  0.6069  0.9273
  253PVA    H1242860   4.016   3.271   2.467  5.5190 -1.1775 -2.4055
  253PVA     C742861   3.859   3.159   2.385 -0.4444 -0.1485 -0.0409
  253PVA    H1342862   3.841   3.058   2.346 -2.3522 -0.9689  2.7329
  253PVA    H1442863   3.890   3.215   2.295  3.6546  0.1635  1.3638
  253PVA     C842864   3.731   3.201   2.464 -0.0290  0.7655  0.5810
  253PVA    H1542865   3.723   3.141   2.555  0.3256 -0.4009 -0.1383
  253PVA     O342866   3.729   3.345   2.493 -0.9317  0.9276 -0.5191
  253PVA    H1642867   3.686   3.395   2.421 -3.4072  0.1722  0.3280
  253PVA     C942868   3.598   3.171   2.385 -0.3404  0.3955  0.7147
  253PVA    H1742869   3.609   3.082   2.322  0.1907  2.0359 -1.6585
  253PVA    H1842870   3.583   3.254   2.314  1.1263 -1.9834 -2.6414
  253PVA    C1042871   3.474   3.168   2.479  0.9332  0.5297  0.6973
  253PVA    H1942872   3.496   3.088   2.550 -0.2488 -1.4452 -1.0483
  253PVA    H2042873   3.475   3.259   2.540  0.0035 -0.6580  2.5484
  253PVA    C1142874   3.334   3.127   2.417 -0.6749 -0.3123  0.4585
  253PVA    H2142875   3.270   3.128   2.506  0.4406 -1.7678  1.3181
  253PVA     O442876   3.277   3.226   2.326 -0.0462  1.0904 -0.8457
  253PVA    H2242877   3.197   3.194   2.282 -2.6544  2.1699  2.6034
  253PVA    C1242878   3.314   2.994   2.336 -0.5652 -0.6294 -0.8227
  253PVA    H2342879   3.357   2.919   2.403 -0.0526  0.3069 -0.0655
  253PVA    H2442880   3.378   2.994   2.247  1.2891 -1.9989  0.4284
  253PVA    C1342881   3.170   2.954   2.305 -0.1121  0.3334  0.1709
  253PVA    H2542882   3.105   2.974   2.391  0.9905 -1.0338  1.3602
  253PVA    H2642883   3.135   3.015   2.220 -1.2699 -0.8796 -0.2523
  253PVA    C1442884   3.169   2.807   2.257 -0.7342 -0.0627  0.4466
  253PVA    H2742885   3.193   2.748   2.346  2.0736  0.9355  0.4408
  253PVA     O542886   3.252   2.789   2.147 -0.3132  0.2404 -0.5009
  253PVA    H2842887   3.310   2.867   2.144  1.0489 -0.6639  0.7516
  253PVA    C1542888   3.031   2.746   2.214  0.0396 -0.2230  0.0968
  253PVA    H2942889   2.984   2.803   2.132 -0.5874  0.2483  0.7643
  253PVA    H3042890   2.971   2.770   2.303  1.7647  0.0977  1.2124
  253PVA    C1642891   3.015   2.600   2.165 -0.0589  0.8317 -0.8224
  253PVA    H3142892   3.062   2.584   2.068 -3.3689 -1.9643 -2.1611
  253PVA    H3242893   3.047   2.528   2.241 -2.1780  1.7891  1.1133
  253PVA    C1742894   2.871   2.555   2.148 -0.2789 -0.2196  0.5168
  253PVA    H3342895   2.810   2.637   2.107 -0.7743 -1.8216 -2.2099
  253PVA     O642896   2.826   2.511   2.279  0.6908  0.1260 -0.3272
  253PVA    H3442897   2.734   2.534   2.303  0.5977  0.5148 -1.0341
  253PVA    C1842898   2.838   2.447   2.041  0.1711  0.0088  1.4449
  253PVA    H3542899   2.906   2.437   1.955 -0.6784  0.9541  0.6442
  253PVA    H3642900   2.843   2.343   2.076  0.5518 -0.9120 -1.1324
  253PVA    C1942901   2.694   2.474   1.977 -0.4115 -0.1995  0.2115
  253PVA    H3742902   2.718   2.572   1.934  4.9359  1.5459  5.7067
  253PVA    H3842903   2.617   2.499   2.051  3.8437 -2.6621  6.3142
  253PVA    C2042904   2.648   2.359   1.876 -0.5297 -0.2271 -1.0025
  253PVA    H3942905   2.737   2.312   1.831  0.9166  1.1657  0.2648
  253PVA     O742906   2.598   2.261   1.976  0.0805  0.1339  0.0053
  253PVA    H4042907   2.574   2.182   1.925 -1.7619 -0.7556  2.0641
  253PVA    C2142908   2.551   2.404   1.774  0.6958 -0.1277 -0.5380
  253PVA    H4142909   2.606   2.458   1.696 -0.6540 -0.9443 -2.0972
  253PVA    H4242910   2.474   2.463   1.825 -3.1052 -3.5558 -1.8430
  253PVA    C2242911   2.469   2.299   1.695  0.4453 -0.5347 -0.2397
  253PVA    H4342912   2.526   2.235   1.626 -0.5656 -0.6572 -0.9976
  253PVA    H4442913   2.404   2.250   1.769  2.7181 -1.0977  1.4608
  253PVA    C2342914   2.367   2.372   1.595 -0.5426  1.4607  0.4926
  253PVA    H4542915   2.427   2.445   1.539 -0.0931  0.7675  0.0331
  253PVA     O842916   2.260   2.422   1.674  0.0489 -0.6415  0.3827
  253PVA    H4642917   2.294   2.499   1.722 -1.9437 -0.5634  1.7455
  253PVA    C2442918   2.309   2.286   1.479 -0.3191  1.8339 -0.1024
  253PVA    H4742919   2.391   2.247   1.417  0.0353 -0.4461  1.6525
  253PVA    H4842920   2.256   2.196   1.512 -0.3354  2.3066  1.2001
  253PVA    C2542921   2.210   2.361   1.377  0.8364 -0.8223 -1.8436
  253PVA    H4942922   2.241   2.460   1.341  0.1023 -1.0098 -3.0478
  253PVA    H5042923   2.119   2.389   1.432  1.0466 -0.2570 -1.7789
  253PVA    C2642924   2.177   2.300   1.244 -0.8666 -1.0761 -0.0899
  253PVA    H5142925   2.267   2.322   1.185  0.6821  1.4060  2.9358
  253PVA     O942926   2.180   2.151   1.263 -0.4168  0.5195 -0.5137
  253PVA    H5242927   2.122   2.130   1.339  2.7744 -0.2174  1.9843
  253PVA    C2742928   2.044   2.357   1.169 -0.0138  0.6936 -0.2384
  253PVA    H5342929   2.025   2.456   1.214  2.2196  0.9283  0.3254
  253PVA    H5442930   1.953   2.308   1.206 -1.3324  4.3038  1.8798
  253PVA    C2842931   2.054   2.388   1.018  0.0619  0.6629 -0.3123
  253PVA    H5542932   2.144   2.346   0.970 -2.0666 -3.1490 -1.3345
  253PVA    H5642933   2.055   2.498   1.016  2.5447  0.7364  1.0190
  253PVA    C2942934   1.939   2.333   0.921 -0.3333 -0.3800 -0.3357
  253PVA    H5742935   1.917   2.227   0.938  1.5072 -0.7822 -0.2304
  253PVA    O1042936   1.811   2.400   0.950 -0.7219 -0.0094  0.1411
  253PVA    H5842937   1.780   2.351   1.028  0.4482 -0.9824  0.0208
  253PVA    C3042938   1.976   2.344   0.770  0.3979 -0.0249  0.8371
  253PVA    H5942939   2.074   2.390   0.753 -1.7154  4.5513 -0.3141
  253PVA    H6042940   2.008   2.250   0.722 -2.7058 -1.1400  0.7135
  253PVA    C3142941   1.868   2.398   0.657  0.8725 -0.5849  0.7864
  253PVA    H6142942   1.839   2.504   0.662 -3.3631 -1.5742  0.8747
  253PVA    H6242943   1.764   2.371   0.679 -0.8481  1.5244 -3.5739
  253PVA    C3242944   1.910   2.365   0.509 -0.0557  0.8114 -0.4883
  253PVA    H6342945   2.014   2.388   0.483  0.4431 -1.3094 -0.5489
  253PVA    O1142946   1.892   2.226   0.490  0.8862 -0.0245  0.7059
  253PVA    H6442947   1.935   2.190   0.569 -1.9910 -0.2196  2.3214
  253PVA    C3342948   1.822   2.445   0.408  0.3123 -0.2971  0.8513
  253PVA    H6542949   1.791   2.542   0.448  1.7717  1.0378 -1.0863
  253PVA    H6642950   1.732   2.383   0.413  0.1102  0.0157  1.0793
  253PVA    C3442951   1.870   2.434   0.256 -0.6486 -0.7510  0.2543
  253PVA    H6742952   1.962   2.483   0.222 -0.5913 -0.3384  0.9819
  253PVA    H6842953   1.889   2.333   0.219  1.2700 -0.4702  0.3808
  253PVA    C3542954   1.752   2.470   0.163 -0.1232 -0.0884  0.0122
  253PVA    H6942955   1.657   2.427   0.195  1.0028 -0.1359  3.7914
  253PVA    O1242956   1.744   2.613   0.175 -0.7749 -0.0805  0.3643
  253PVA    H7042957   1.833   2.653   0.177 -0.7497 -0.1207  2.4174
  253PVA    C3642958   1.748   2.418   0.009  0.6040 -0.0239 -0.1013
  253PVA    H7142959   1.805   2.486   8.041  0.7093 -1.1061 -1.1942
  253PVA    H7242960   1.801   2.322   0.007  1.2959  0.3333  0.7085
  253PVA    C3742961   1.607   2.423   8.059 -0.2375 -0.0438 -0.0369
  253PVA    H7342962   1.567   2.523   8.083  0.6138  0.2864  0.0538
  253PVA    H7442963   1.549   2.351   0.021 -2.7236  0.8432 -1.2563
  253PVA    C3842964   1.567   2.394   7.916  0.7840  0.1785  0.4786
  253PVA    H7542965   1.590   2.287   7.902 -1.4346 -0.2211 -0.5057
  253PVA    O1342966   1.645   2.466   7.819  0.6738  0.0795 -0.7598
  253PVA    H7642967   1.715   2.404   7.790  2.9100  1.3983  1.4857
  253PVA    C3942968   1.414   2.389   7.891 -0.4005  1.4786  0.0446
  253PVA    H7742969   1.366   2.453   7.966 -3.1387  0.9091 -1.1236
  253PVA    H7842970   1.385   2.287   7.923  0.1759 -0.6669 -5.3273
  253PVA    C4042971   1.331   2.366   7.764  0.2246 -0.3782  0.3444
  253PVA    H7942972   1.350   2.441   7.686 -1.9153 -0.0834  0.0447
  253PVA    H8042973   1.373   2.285   7.703  0.1709 -1.9405  2.3156
  253PVA    C4142974   1.180   2.333   7.789 -0.3205 -0.0046 -0.5426
  253PVA    H8142975   1.189   2.261   7.871  1.7817  0.3476 -0.4100
  253PVA    O1442976   1.122   2.453   7.833  0.6875 -1.1575  0.3963
  253PVA    H8242977   1.159   2.512   7.766  1.2854 -4.0024 -2.0016
  253PVA    C4242978   1.083   2.263   7.671  0.3147  0.2778  0.1108
  253PVA    H8342979   1.023   2.178   7.705  3.1408 -2.3714 -1.0490
  253PVA    H8442980   1.148   2.223   7.592  0.5680 -0.6750  0.7894
  253PVA    C4342981   0.978   2.358   7.608 -0.6091 -0.2479 -0.2948
  253PVA    H8542982   1.029   2.451   7.584 -4.0710  1.1754 -2.9986
  253PVA    H8642983   0.922   2.385   7.699  2.3761  0.0746  1.5949
  253PVA    C4442984   0.867   2.320   7.500  0.9841 -1.1696  0.4464
  253PVA    H8742985   0.765   2.341   7.533  1.6076 -1.0102  2.4091
  253PVA    O1542986   0.882   2.187   7.476 -0.2684 -0.7278  1.3175
  253PVA    H8842987   0.795   2.169   7.435  0.1239 -0.7091  0.4643
  253PVA    C4542988   0.883   2.395   7.361  0.4213 -0.7240  1.1110
  253PVA    H8942989   0.877   2.500   7.392  0.0927 -0.7683  1.2045
  253PVA    H9042990   0.984   2.366   7.328 -0.2964 -3.1149  0.8161
  253PVA    C4642991   0.775   2.365   7.248 -0.8544  1.7811 -1.4057
  253PVA    H9142992   0.682   2.372   7.305  0.4586  3.1474  0.7349
  253PVA    H9242993   0.791   2.260   7.222 -2.6847  1.0880  0.0742
  253PVA    C4742994   0.786   2.458   7.124  0.2880  1.0017 -0.5584
  253PVA    H9342995   0.889   2.477   7.093 -0.6397  2.8905 -2.7344
  253PVA    O1642996   0.739   2.578   7.181 -0.5161 -0.6557 -0.8577
  253PVA    H9442997   0.737   2.644   7.109  4.5721  0.8842  0.0432
  253PVA    C4842998   0.674   2.409   7.018  0.1223 -0.1743  0.8987
  253PVA    H9542999   0.637   2.306   7.022 -0.6333  0.0755  0.5830
  253PVA    H9643000   0.593   2.481   7.034  2.3175  3.6479 -2.9884
  253PVA    C4943001   0.699   2.437   6.864  0.9686 -0.3298 -1.0698
  253PVA    H9743002   0.663   2.535   6.831 -2.7745 -1.2051 -0.0947
  253PVA    H9843003   0.804   2.462   6.845  1.3364  1.8838  2.8030
  253PVA    C5043004   0.666   2.314   6.769 -0.7824  0.4773  0.3193
  253PVA    H9943005   0.721   2.231   6.814 -1.4931 -0.3878 -0.3519
  253PVA    O1743006   0.528   2.269   6.794 -0.2531  0.2908  0.1433
  253PVA   H10043007   0.459   2.337   6.805 -5.7133 -4.5148 -0.2026
  253PVA    C5143008   0.719   2.319   6.623  0.1596  0.1213  0.4273
  253PVA   H10143009   0.656   2.380   6.556  1.9108 -0.7678 -2.1556
  253PVA   H10243010   0.808   2.382   6.629 -0.1706  0.4600  2.8207
  254PVA     C143011   6.910   1.576   5.981 -0.7691 -0.5470  1.0281
  254PVA     H143012   6.925   1.470   5.959  0.3043  0.1293 -1.9160
  254PVA     H243013   7.003   1.634   5.991 -2.9487  3.6698 -0.6396
  254PVA     C243014   6.812   1.584   6.101 -0.1548  0.3407 -1.2918
  254PVA     H343015   6.730   1.511   6.096 -2.7779  3.0223 -0.2618
  254PVA     O143016   6.768   1.715   6.125  0.6578 -1.0632  0.0958
  254PVA     H443017   6.776   1.765   6.042  0.4510 -0.1814  0.5945
  254PVA     C343018   6.889   1.523   6.233  1.1358 -0.1291  0.6046
  254PVA     H543019   6.909   1.417   6.213 -2.0869 -0.2553 -3.2181
  254PVA     H643020   6.989   1.564   6.251  1.3644 -0.4858  0.1817
  254PVA     C443021   6.809   1.524   6.372  1.3024 -0.3568 -0.4140
  254PVA     H743022   6.763   1.622   6.385 -1.1650 -0.8735 -3.9197
  254PVA     H843023   6.727   1.452   6.357  0.3551  0.4524  0.6777
  254PVA     C543024   6.886   1.481   6.505 -0.0989 -1.2342 -0.2181
  254PVA     H943025   6.815   1.456   6.586 -0.2299 -2.0837 -0.5913
  254PVA     O243026   6.976   1.374   6.484  0.2102 -1.0253 -0.4950
  254PVA    H1043027   7.048   1.419   6.437 -0.3323  2.3209  1.5938
  254PVA     C643028   6.964   1.597   6.569 -0.6779 -0.5772 -1.1581
  254PVA    H1143029   7.012   1.660   6.493  1.0113 -2.8155 -2.0722
  254PVA    H1243030   6.897   1.668   6.618 -1.6123 -2.6636  0.7440
  254PVA     C743031   7.055   1.558   6.695  0.7521  0.5727  0.4009
  254PVA    H1343032   7.127   1.482   6.662  0.1881 -1.4790  3.4355
  254PVA    H1443033   6.976   1.510   6.754 -1.4171  1.1085 -1.9102
  254PVA     C843034   7.125   1.680   6.760 -0.0966 -1.5064  0.0356
  254PVA    H1543035   7.063   1.740   6.828  1.5176 -1.3130  1.4079
  254PVA     O343036   7.172   1.768   6.656 -1.3408 -0.4082 -0.3062
  254PVA    H1643037   7.192   1.720   6.573  3.1294  1.1889 -0.4474
  254PVA     C943038   7.240   1.645   6.840 -0.6227  0.1521  1.1295
  254PVA    H1743039   7.312   1.597   6.773 -1.0380  1.1687 -0.0738
  254PVA    H1843040   7.213   1.561   6.905  1.2534  1.1756  3.4134
  254PVA    C1043041   7.316   1.742   6.932  0.4630  0.9769  0.2266
  254PVA    H1943042   7.371   1.815   6.872  5.5362 -3.6944 -1.6058
  254PVA    H2043043   7.242   1.788   6.999 -0.4496 -0.4668  0.2529
  254PVA    C1143044   7.437   1.675   7.017  0.0540  0.1840 -0.6069
  254PVA    H2143045   7.524   1.693   6.953  1.5699  0.0361  1.3502
  254PVA     O443046   7.416   1.534   7.005 -0.5773  0.0142 -0.1443
  254PVA    H2243047   7.461   1.498   7.084  1.1831  3.1360  0.4482
  254PVA    C1243048   7.469   1.722   7.164 -0.3559 -0.7187  0.2544
  254PVA    H2343049   7.561   1.782   7.155 -0.1566 -1.1436 -0.7027
  254PVA    H2443050   7.397   1.798   7.197 -3.3054 -3.2022  0.0032
  254PVA    C1343051   7.476   1.609   7.268  0.6065  0.6378  0.3802
  254PVA    H2543052   7.378   1.561   7.260  1.1558 -0.5228  0.3723
  254PVA    H2643053   7.555   1.545   7.226  0.5797  0.9915 -0.2262
  254PVA    C1443054   7.518   1.644   7.414  0.4102 -1.0298  1.2071
  254PVA    H2743055   7.430   1.694   7.457  1.8275  2.3968  0.4509
  254PVA     O543056   7.531   1.530   7.495  0.4638  0.1833  0.1480
  254PVA    H2843057   7.610   1.493   7.451  0.9297  3.3103 -2.0116
  254PVA    C1543058   7.633   1.753   7.433 -0.2786  1.1358 -0.0929
  254PVA    H2943059   7.586   1.847   7.399 -0.9591  3.4903  5.9432
  254PVA    H3043060   7.712   1.712   7.370 -1.7641 -3.0814  0.4771
  254PVA    C1643061   7.699   1.775   7.572 -0.3893  0.2780 -0.4540
  254PVA    H3143062   7.621   1.800   7.645 -0.8838 -0.6064 -0.6678
  254PVA    H3243063   7.735   1.679   7.612  3.5203  2.2812  1.4759
  254PVA    C1743064   0.053   1.881   7.558  0.2552  0.2341  0.0848
  254PVA    H3343065   0.014   1.974   7.514  0.5976 -0.3868 -1.6323
  254PVA     O643066   0.140   1.827   7.453  0.4689  0.2430  0.1272
  254PVA    H3443067   0.160   1.744   7.501 -1.6151  0.8223  2.2216
  254PVA    C1843068   0.134   1.899   7.684  0.1121 -0.6254 -0.3214
  254PVA    H3543069   0.070   1.977   7.728 -0.6754 -0.9446 -0.8882
  254PVA    H3643070   0.103   1.814   7.745  3.1857 -0.7391  1.2736
  254PVA    C1943071   0.287   1.946   7.693 -0.4138 -0.0264 -0.3984
  254PVA    H3743072   0.300   2.025   7.617  3.3139 -0.6693 -0.6174
  254PVA    H3843073   0.367   1.882   7.654  0.9657  1.8434 -0.7753
  254PVA    C2043074   0.336   1.982   7.829  0.1168  0.3947 -0.4915
  254PVA    H3943075   0.254   1.963   7.899  0.3267  1.1114 -0.0439
  254PVA     O743076   0.326   2.120   7.852  0.4153  0.8794  0.5141
  254PVA    H4043077   0.384   2.156   7.922 -2.1835  1.2858  2.6346
  254PVA    C2143078   0.464   1.912   7.907 -0.9363 -0.3680  0.0433
  254PVA    H4143079   0.425   1.831   7.969  1.1685 -0.6727  1.0648
  254PVA    H4243080   0.498   1.982   7.985 -0.8350 -1.7163  1.2433
  254PVA    C2243081   0.588   1.858   7.835 -0.1054  1.0382 -0.0855
  254PVA    H4343082   0.558   1.789   7.756 -1.3749  1.6649 -0.1765
  254PVA    H4443083   0.639   1.931   7.771 -2.1599  3.4382  0.8294
  254PVA    C2343084   0.692   1.791   7.939 -0.4678  0.0633  0.7561
  254PVA    H4543085   0.716   1.861   8.020 -1.7302 -2.1176  3.1686
  254PVA     O843086   0.628   1.670   8.001 -0.1639  0.5628 -0.2912
  254PVA    H4643087   0.587   1.708   8.081 -3.4494 -1.2522 -0.9432
  254PVA    C2443088   0.832   1.742   7.891  0.7542  0.2147 -0.6088
  254PVA    H4743089   0.804   1.649   7.840 -0.6329  0.4176 -0.2644
  254PVA    H4843090   0.869   1.814   7.817  2.0664  0.9320  0.6898
  254PVA    C2543091   0.929   1.718   8.003  0.3936 -0.2339 -0.4094
  254PVA    H4943092   0.870   1.675   8.084  0.6243 -2.0560 -1.1561
  254PVA    H5043093   0.959   1.809   8.055 -4.0182 -0.5626  3.3758
  254PVA    C2643094   1.060   1.653   7.970 -0.3727  0.3310 -0.0665
  254PVA    H5143095   1.046   1.574   7.896 -0.6351 -2.3428  2.6662
  254PVA     O943096   1.147   1.743   7.910 -0.2003 -0.7441  0.6255
  254PVA    H5243097   1.113   1.834   7.901 -1.3980 -1.3973 -4.0172
  254PVA    C2743098   1.142   1.620   0.004  0.6804 -0.6349  0.2199
  254PVA    H5343099   1.158   1.720   0.047 -1.6542  0.3253 -0.9564
  254PVA    H5443100   1.086   1.566   0.081  2.2903 -1.0577  1.1372
  254PVA    C2843101   1.283   1.542   8.082  0.2595 -0.5673 -0.5012
  254PVA    H5543102   1.268   1.444   8.037 -0.1437 -0.4596 -0.6020
  254PVA    H5643103   1.340   1.603   8.011  1.9797 -0.2322  1.0720
  254PVA    C2943104   1.363   1.520   0.108 -0.6014 -0.5418 -0.8129
  254PVA    H5743105   1.400   1.614   0.153  3.9531 -2.5040  0.1425
  254PVA    O1043106   1.270   1.465   0.203 -0.7751 -0.5760  0.8145
  254PVA    H5843107   1.218   1.546   0.218 -0.9841 -0.8755  1.7249
  254PVA    C3043108   1.471   1.414   0.088 -1.7143  1.0277  0.2422
  254PVA    H5943109   1.453   1.346   0.172  1.3976 -2.9753 -1.9998
  254PVA    H6043110   1.453   1.361   8.091 -5.3650  0.3851  1.1600
  254PVA    C3143111   1.627   1.467   0.085 -0.0322 -0.3112  0.4172
  254PVA    H6143112   1.654   1.501   0.185 -2.7455 -2.3491  1.9873
  254PVA    H6243113   1.633   1.564   0.035 -1.2335 -1.9991 -3.4498
  254PVA    C3243114   1.747   1.369   0.047  0.4839 -0.2056  0.7655
  254PVA    H6343115   1.768   1.315   0.140 -2.2173  0.3493  1.7868
  254PVA    O1143116   1.868   1.441   0.017 -0.2058  1.2557  0.3508
  254PVA    H6443117   1.838   1.509   8.052 -0.2844 -0.8258 -2.0324
  254PVA    C3343118   1.726   1.272   8.028  0.6571  0.4992  0.7661
  254PVA    H6543119   1.697   1.338   7.945 -2.3905  0.1616  1.4342
  254PVA    H6643120   1.649   1.196   8.048  0.3516  1.0881  1.9125
  254PVA    C3443121   1.845   1.199   7.948 -0.8762 -0.1375  0.3357
  254PVA    H6743122   1.898   1.273   7.886 -1.0887  0.1664  0.5111
  254PVA    H6843123   1.926   1.170   8.017  2.9085  2.7701 -2.4285
  254PVA    C3543124   1.817   1.065   7.868 -0.4271  0.1932  1.0395
  254PVA    H6943125   1.923   1.037   7.865 -0.1641  1.2298  0.3637
  254PVA    O1243126   1.756   0.973   7.960  1.3790  0.0763 -0.3159
  254PVA    H7043127   1.829   0.968   8.024  1.4502 -0.9363 -0.4576
  254PVA    C3643128   1.748   1.061   7.721  0.1147  0.0233  0.0378
  254PVA    H7143129   1.642   1.066   7.748  0.2995  0.1913  0.7522
  254PVA    H7243130   1.786   1.156   7.681  2.1424 -1.1208 -0.9251
  254PVA    C3743131   1.792   0.922   7.649 -0.0243  0.5358 -0.5470
  254PVA    H7343132   1.892   0.946   7.612 -0.6013  3.2933 -0.5552
  254PVA    H7443133   1.784   0.855   7.735  1.6229  3.5247  2.1410
  254PVA    C3843134   1.701   0.893   7.529 -0.7809 -0.0290  0.2131
  254PVA    H7543135   1.601   0.939   7.540 -0.6976 -0.0856  1.3373
  254PVA    O1343136   1.669   0.743   7.518  0.0988  0.6829 -0.4025
  254PVA    H7643137   1.669   0.718   7.612 -0.3217 -0.0678 -0.5871
  254PVA    C3943138   1.758   0.932   7.391  0.8443  0.3709  1.4271
  254PVA    H7743139   1.857   0.886   7.380  0.4915 -0.1506  0.3008
  254PVA    H7843140   1.749   1.041   7.378 -1.7443  0.3741  2.6502
  254PVA    C4043141   1.683   0.884   7.260 -0.0393 -0.7720  1.0318
  254PVA    H7943142   1.744   0.794   7.249  2.5521  1.0600 -0.8971
  254PVA    H8043143   1.578   0.866   7.287 -0.4432  3.6437  3.3849
  254PVA    C4143144   1.662   0.945   7.118 -0.2554  0.4464  0.4990
  254PVA    H8143145   1.637   0.868   7.044 -0.6311  2.8174 -2.0090
  254PVA    O1443146   1.786   1.014   7.081 -0.3251  0.3043 -0.4822
  254PVA    H8243147   1.847   0.944   7.051  1.0717  0.2013  2.2418
  254PVA    C4243148   1.540   1.049   7.109 -0.3535  0.5202 -0.3015
  254PVA    H8343149   1.452   0.983   7.107  0.0001  0.0094  0.5681
  254PVA    H8443150   1.552   1.110   7.200 -1.8320  0.4475 -0.0351
  254PVA    C4343151   1.523   1.148   6.987  0.2599 -0.8683  0.2130
  254PVA    H8543152   1.598   1.126   6.911  0.6679 -4.4851  1.4719
  254PVA    H8643153   1.553   1.249   7.017  1.7133 -1.1289 -0.3085
  254PVA    C4443154   1.373   1.191   6.953  0.1619  1.3556 -0.6706
  254PVA    H8743155   1.325   1.098   6.919  1.5793  0.2176  0.2922
  254PVA    O1543156   1.319   1.255   7.077  0.2490 -0.4309  0.1008
  254PVA    H8843157   1.353   1.345   7.066  0.8660 -0.4173  1.7875
  254PVA    C4543158   1.370   1.278   6.837 -1.2445 -0.0809  0.0519
  254PVA    H8943159   1.444   1.357   6.856  0.8391 -1.9052  0.0200
  254PVA    H9043160   1.420   1.222   6.757  4.3083  0.5091  2.6283
  254PVA    C4643161   1.227   1.328   6.795  0.6185  0.1652  0.6178
  254PVA    H9143162   1.167   1.360   6.881 -2.2646  1.3167 -1.6599
  254PVA    H9243163   1.174   1.240   6.757  0.0429 -0.9400  3.6778
  254PVA    C4743164   1.233   1.448   6.702 -0.3739  0.4177 -0.7053
  254PVA    H9343165   1.253   1.398   6.607 -0.8145  1.0868 -1.1575
  254PVA    O1643166   1.338   1.538   6.743 -1.3182  0.2679  0.6210
  254PVA    H9443167   1.352   1.526   6.839 -1.2111  0.8912  0.6842
  254PVA    C4843168   1.097   1.535   6.688  0.1198 -0.9045 -0.5394
  254PVA    H9543169   1.067   1.570   6.788 -3.3555 -1.9179 -1.0728
  254PVA    H9643170   1.018   1.458   6.683 -0.1163 -0.9980  2.6485
  254PVA    C4943171   1.095   1.640   6.576 -0.4255 -0.4643  0.8222
  254PVA    H9743172   1.107   1.591   6.479  2.1299 -1.0137  1.3197
  254PVA    H9843173   1.197   1.681   6.576 -0.1360 -1.1189 -0.8501
  254PVA    C5043174   0.976   1.751   6.569  0.2430  0.0100 -0.6135
  254PVA    H9943175   0.981   1.804   6.666  2.7125 -1.7372  0.3103
  254PVA    O1743176   0.848   1.700   6.559  0.1527 -0.2880 -0.9532
  254PVA   H10043177   0.801   1.729   6.639  2.1228  1.6414 -0.4241
  254PVA    C5143178   0.981   1.863   6.468 -0.0545  0.2036  0.2425
  254PVA   H10143179   1.068   1.929   6.471  0.4835 -0.4744 -0.2591
  254PVA   H10243180   0.985   1.825   6.365  2.9302 -1.9630  1.0399
  255PVA     C143181   6.803   1.530   5.496 -0.2111  0.2184  0.0231
  255PVA     H143182   6.747   1.453   5.550  0.4967  0.1051  0.6070
  255PVA     H243183   6.719   1.562   5.432 -1.1129 -2.5146 -0.3052
  255PVA     C243184   6.884   1.464   5.380  0.6671 -0.0586  1.1058
  255PVA     H343185   6.944   1.536   5.322  1.0473 -2.4661 -1.7279
  255PVA     O143186   6.974   1.377   5.442  1.4148  0.6784  0.2794
  255PVA     H443187   7.056   1.384   5.390  0.5136  3.5356 -0.9665
  255PVA     C343188   6.795   1.402   5.262 -0.1034  0.8936  0.0300
  255PVA     H543189   6.719   1.475   5.232 -2.2849 -1.6747 -1.0447
  255PVA     H643190   6.863   1.404   5.176  2.3833  3.2664  1.8262
  255PVA     C443191   6.733   1.253   5.275  0.0355 -0.1621 -0.4844
  255PVA     H743192   6.641   1.243   5.334 -0.7849  3.1645 -1.0199
  255PVA     H843193   6.807   1.195   5.330 -2.1417 -0.2060  2.6377
  255PVA     C543194   6.692   1.183   5.142  0.4840  0.8152 -0.4235
  255PVA     H943195   6.777   1.212   5.080 -0.9658  0.6963 -2.5607
  255PVA     O243196   6.577   1.256   5.090 -0.1864 -0.3618  0.3142
  255PVA    H1043197   6.585   1.345   5.129 -1.1010 -0.0018 -0.2746
  255PVA     C643198   6.661   1.028   5.133  1.3589 -0.0634  0.9769
  255PVA    H1143199   6.758   0.977   5.141  0.8805 -1.6428 -1.9276
  255PVA    H1243200   6.584   0.989   5.202  1.4199  0.2207  1.2055
  255PVA     C743201   6.637   0.956   4.996  0.0909 -0.9977  0.0443
  255PVA    H1343202   6.702   0.992   4.914 -0.9704 -1.7725 -1.1773
  255PVA    H1443203   6.537   0.986   4.963  0.8582  3.6656  1.2553
  255PVA     C843204   6.651   0.808   4.993 -0.2420  0.3760 -0.3435
  255PVA    H1543205   6.604   0.777   5.087 -3.9861  1.1659 -1.7903
  255PVA     O343206   6.793   0.778   5.013  0.2775 -0.7426  0.2494
  255PVA    H1643207   6.844   0.780   4.930  2.9107 -2.7825  1.6693
  255PVA     C943208   6.602   0.733   4.868 -0.0078 -0.3204  0.2380
  255PVA    H1743209   6.603   0.798   4.780  1.0827  1.4317  1.4896
  255PVA    H1843210   6.494   0.714   4.874 -0.1471  0.5995  0.8420
  255PVA    C1043211   6.677   0.604   4.812  0.4794 -0.7386  0.9833
  255PVA    H1943212   6.781   0.627   4.786  0.2914 -0.8153  0.1490
  255PVA    H2043213   6.698   0.542   4.900 -2.0027 -0.8708  1.5386
  255PVA    C1143214   6.606   0.516   4.707 -0.5904  0.8211  0.0950
  255PVA    H2143215   6.529   0.451   4.751  2.0625 -2.6570  0.0460
  255PVA     O443216   6.540   0.597   4.620 -0.0340 -0.8577  0.5913
  255PVA    H2243217   6.447   0.580   4.642  0.2700 -2.0270  1.0818
  255PVA    C1243218   6.704   0.410   4.634 -0.5896 -0.0693  0.0048
  255PVA    H2343219   6.793   0.466   4.602 -0.8404 -1.6651 -3.9549
  255PVA    H2443220   6.723   0.332   4.709 -0.3915 -0.5820 -0.5646
  255PVA    C1343221   6.638   0.337   4.510  1.1094 -0.6549  0.7633
  255PVA    H2543222   6.593   0.413   4.445  3.5155  0.4431  0.2825
  255PVA    H2643223   6.560   0.270   4.550 -1.6934  1.5516 -0.6265
  255PVA    C1443224   6.718   0.254   4.400 -0.1823 -0.3213  0.3084
  255PVA    H2743225   6.759   0.162   4.444  1.1847  0.2166  0.2216
  255PVA     O543226   6.816   0.350   4.365 -0.1043  0.2541 -0.4118
  255PVA    H2843227   6.846   0.334   4.273 -1.2362  1.6838 -1.0716
  255PVA    C1543228   6.655   0.197   4.269 -0.5420 -0.1714 -0.0152
  255PVA    H2943229   6.595   0.270   4.213 -3.9770 -1.1219  2.1431
  255PVA    H3043230   6.582   0.126   4.310 -0.8023  1.5379  2.7346
  255PVA    C1643231   6.745   0.103   4.177 -0.1427 -0.8419 -0.7267
  255PVA    H3143232   6.840   0.063   4.212  0.3599 -2.3204 -3.5309
  255PVA    H3243233   6.772   0.172   4.096 -2.5820  2.6472  1.1259
  255PVA    C1743234   6.693   7.675   4.098  0.2295  0.6866 -0.3418
  255PVA    H3343235   6.662   7.598   4.170 -1.1275  1.6356  0.1477
  255PVA     O643236   6.578   0.035   4.040 -0.1328  0.4221 -0.4312
  255PVA    H3443237   6.623   0.068   3.960  5.4811 -4.2881  0.0789
  255PVA    C1843238   6.796   7.601   3.993  0.2541 -0.7391  0.1838
  255PVA    H3543239   6.828   7.661   3.908  3.1580 -1.5270  0.6118
  255PVA    H3643240   6.879   7.558   4.051  1.0208  0.1107 -0.2827
  255PVA    C1943241   6.740   7.471   3.924 -0.2023 -0.1001 -0.2287
  255PVA    H3743242   6.661   7.506   3.856 -3.5781 -0.0496  3.2966
  255PVA    H3843243   6.670   7.408   3.981  0.2023 -2.6276 -2.3821
  255PVA    C2043244   6.839   7.388   3.837 -0.1700 -0.4183 -0.4218
  255PVA    H3943245   6.888   7.313   3.899  1.7454  2.5481  1.9219
  255PVA     O743246   6.924   7.490   3.767 -0.9154 -0.0494  0.2518
  255PVA    H4043247   6.846   7.532   3.727 -4.1072 -5.3241  0.0149
  255PVA    C2143248   6.771   7.300   3.724 -0.5870  1.1487  0.9212
  255PVA    H4143249   6.716   7.365   3.655 -1.5783 -1.3707 -0.8222
  255PVA    H4243250   6.689   7.230   3.746  2.2127 -3.3330 -1.2439
  255PVA    C2243251   6.871   7.236   3.615  0.8118  0.6505  0.2016
  255PVA    H4343252   6.917   7.325   3.571 -3.0965  0.8719 -4.2399
  255PVA    H4443253   6.946   7.175   3.668 -0.4371  0.2720  1.5898
  255PVA    C2343254   6.789   7.151   3.505  0.2390 -0.0081 -0.1089
  255PVA    H4543255   6.742   7.076   3.570  0.5574  1.5616  2.0604
  255PVA     O843256   6.692   7.239   3.446  0.0281 -0.6082 -0.0473
  255PVA    H4643257   6.729   7.328   3.437  0.6637 -0.8315  0.3626
  255PVA    C2443258   6.868   7.086   3.393  0.5971  0.4084  0.0802
  255PVA    H4743259   6.866   7.165   3.317 -2.6813  1.4974  1.0898
  255PVA    H4843260   6.972   7.078   3.427  0.3109 -0.1699  0.8481
  255PVA    C2543261   6.831   6.944   3.334 -0.0554 -0.7590 -0.4160
  255PVA    H4943262   6.723   6.938   3.319 -0.3494 -1.2319  1.5822
  255PVA    H5043263   6.844   6.873   3.417  0.0765  0.9266  1.0538
  255PVA    C2643264   6.899   6.893   3.199 -0.5588  0.1562 -0.8299
  255PVA    H5143265   7.002   6.867   3.224 -1.0287 -2.2790 -1.1586
  255PVA     O943266   6.917   6.989   3.101 -0.3297  0.2049 -0.2249
  255PVA    H5243267   6.947   7.076   3.133  0.6575  1.6169 -4.3478
  255PVA    C2743268   6.836   6.770   3.124 -0.6224 -0.3678  0.6251
  255PVA    H5343269   6.820   6.690   3.197 -0.9375 -2.3401 -1.4993
  255PVA    H5443270   6.741   6.796   3.076 -1.8443  1.6174  3.8237
  255PVA    C2843271   6.936   6.699   3.021  0.8123 -0.6042  0.1940
  255PVA    H5543272   6.964   6.743   2.925 -0.5962 -0.8493 -0.3504
  255PVA    H5643273   7.032   6.687   3.074  1.7300  0.4727 -1.1608
  255PVA    C2943274   6.877   6.561   2.981  0.2765 -0.9384  0.5207
  255PVA    H5743275   6.867   6.493   3.066 -1.4482 -2.0406 -0.5078
  255PVA    O1043276   6.749   6.578   2.931 -0.5425  0.0154 -0.5999
  255PVA    H5843277   6.700   6.500   2.962  1.3305 -1.2199 -0.5880
  255PVA    C3043278   6.952   6.495   2.853  1.0550  0.8762  0.8269
  255PVA    H5943279   6.937   6.557   2.764 -0.2990 -1.1316 -0.4080
  255PVA    H6043280   7.061   6.487   2.868  1.1513 -6.1213 -0.2762
  255PVA    C3143281   6.930   6.345   2.816  0.9881  0.2171  0.3460
  255PVA    H6143282   6.832   6.334   2.767  2.8918  0.6169 -3.9851
  255PVA    H6243283   6.932   6.274   2.900 -0.0313 -1.9725 -1.3785
  255PVA    C3243284   7.013   6.279   2.686 -1.0901  0.2078  0.0568
  255PVA    H6343285   6.992   6.171   2.690 -1.5083  0.3213  1.6998
  255PVA    O1143286   7.156   6.289   2.698 -0.1928  0.4524  0.6324
  255PVA    H6443287   7.183   6.361   2.757  1.2908 -0.7548  1.5030
  255PVA    C3343288   6.973   6.344   2.552  0.0284 -0.1385 -0.2050
  255PVA    H6543289   7.017   6.444   2.560 -0.3306 -0.0634  1.1865
  255PVA    H6643290   6.865   6.363   2.554  0.6194  4.2910  0.2249
  255PVA    C3443291   7.020   6.270   2.422 -0.9102  0.0107  0.0608
  255PVA    H6743292   7.129   6.282   2.423 -0.2745 -3.8946 -1.9478
  255PVA    H6843293   7.030   6.161   2.429  1.7125  0.2367  0.8344
  255PVA    C3543294   6.948   6.330   2.294 -1.1147  0.0830 -0.4357
  255PVA    H6943295   6.846   6.355   2.324 -1.2445  3.9761 -3.4432
  255PVA    O1243296   6.917   6.230   2.203  0.1612 -1.0815 -0.7550
  255PVA    H7043297   6.940   6.270   2.117 -0.1671 -1.6136 -1.0982
  255PVA    C3643298   7.014   6.460   2.220  0.1258  1.2754 -0.6998
  255PVA    H7143299   7.074   6.509   2.298  0.2079 -0.7475  0.5868
  255PVA    H7243300   7.105   6.425   2.169  0.1187  1.8087 -1.0887
  255PVA    C3743301   6.913   6.549   2.136 -0.9124 -0.6656  0.6229
  255PVA    H7343302   6.820   6.557   2.193 -1.9573 -3.5688 -0.4757
  255PVA    H7443303   6.881   6.509   2.039 -3.5849  0.9895  0.7503
  255PVA    C3843304   6.965   6.711   2.106 -0.2634  0.0452 -0.4351
  255PVA    H7543305   7.018   6.732   2.013  4.1807 -1.6540  1.4609
  255PVA    O1343306   7.053   6.751   2.207 -0.3951 -0.1199 -0.8008
  255PVA    H7643307   6.999   6.803   2.270  0.1361  2.0873 -2.0336
  255PVA    C3943308   6.854   6.826   2.092  0.5116  0.1005  0.3231
  255PVA    H7743309   6.799   6.844   2.185  0.2527 -4.6090  1.3597
  255PVA    H7843310   6.784   6.775   2.024 -0.1015 -0.4965  1.3743
  255PVA    C4043311   6.914   6.966   2.051  0.7583  0.2463 -0.8925
  255PVA    H7943312   7.008   6.965   2.107  0.1790  4.7947  0.5337
  255PVA    H8043313   6.923   6.970   1.942 -1.8855 -0.7467 -1.2231
  255PVA    C4143314   6.833   7.100   2.096 -0.1830  0.5073  0.1194
  255PVA    H8143315   6.734   7.083   2.051 -0.0722 -0.0906  0.1004
  255PVA    O1443316   6.822   7.100   2.231  0.7521 -0.0704 -0.6850
  255PVA    H8243317   6.728   7.092   2.255  1.5490 -0.4504  2.9778
  255PVA    C4243318   6.902   7.228   2.039  1.3416  1.4358  0.3343
  255PVA    H8343319   7.002   7.208   1.999 -0.0155 -0.3042 -2.5122
  255PVA    H8443320   6.855   7.245   1.941  2.4363 -0.0395 -0.4697
  255PVA    C4343321   6.891   7.366   2.108 -0.6920 -0.9140  0.0585
  255PVA    H8543322   6.969   7.375   2.184 -0.7205  2.9650 -0.1369
  255PVA    H8643323   6.802   7.388   2.169  1.7974 -1.3481  4.2786
  255PVA    C4443324   6.907   7.506   2.021 -0.0329  0.0165  0.4851
  255PVA    H8743325   6.812   7.559   2.033 -0.2883 -0.3887  0.2712
  255PVA    O1543326   6.926   7.471   1.888 -0.4502  0.6482  0.6870
  255PVA    H8843327   6.918   7.545   1.825 -0.6944 -1.0764 -1.4220
  255PVA    C4543328   7.011   7.623   2.065  0.5141 -0.7582  0.3190
  255PVA    H8943329   6.965   0.006   2.138 -2.8110 -1.2986 -1.0884
  255PVA    H9043330   7.078   7.576   2.138  2.2748 -1.5925 -1.7538
  255PVA    C4643331   7.078   0.030   1.955 -0.8877  0.2390  0.2298
  255PVA    H9143332   7.141   7.653   1.889 -2.6090 -0.8618 -0.4621
  255PVA    H9243333   7.006   0.083   1.892 -0.3922  1.5259  0.7075
  255PVA    C4743334   7.173   0.144   2.002 -0.3795 -1.2153  0.9264
  255PVA    H9343335   7.258   0.108   2.061 -0.1030 -0.8136  0.7784
  255PVA    O1643336   7.092   0.221   2.092  0.2091  0.4951 -0.0070
  255PVA    H9443337   7.104   0.178   2.178 -0.7775  1.4687  0.6376
  255PVA    C4843338   7.216   0.253   1.891 -0.7380  0.5826  0.6140
  255PVA    H9543339   7.319   0.225   1.868 -1.4137  0.2431 -2.4490
  255PVA    H9643340   7.159   0.235   1.798  0.7054  1.1568 -0.4189
  255PVA    C4943341   7.218   0.413   1.925  0.4013  0.7082 -0.4457
  255PVA    H9743342   7.255   0.419   2.028 -0.8414  5.0434 -0.0327
  255PVA    H9843343   7.117   0.452   1.947  1.5508  3.2007  0.8233
  255PVA    C5043344   7.308   0.510   1.836  1.3463  0.6700  0.4395
  255PVA    H9943345   7.276   0.484   1.734  4.4064 -2.1525  0.0062
  255PVA    O1743346   7.448   0.469   1.863  0.2144 -0.6590  0.6422
  255PVA   H10043347   7.501   0.549   1.846 -0.4037  1.2843  5.9202
  255PVA    C5143348   7.290   0.666   1.844  0.7906  0.4210  0.0631
  255PVA   H10143349   7.182   0.686   1.843  0.1887 -2.3908 -0.3264
  255PVA   H10243350   7.317   0.735   1.763 -1.5035  2.6699  1.0921
  256PVA     C143351   0.499   2.608   5.774 -0.2745  1.6095 -0.6691
  256PVA     H143352   0.535   2.504   5.778 -1.4132  1.2175  2.1684
  256PVA     H243353   0.566   2.648   5.697  1.0792 -0.2603 -0.5362
  256PVA     C243354   0.360   2.595   5.714  1.0716  0.3869  0.4247
  256PVA     H343355   0.291   2.569   5.796 -2.5628  2.3036 -1.7587
  256PVA     O143356   0.382   2.505   5.607 -0.1347  0.4682  0.4867
  256PVA     H443357   0.438   2.430   5.632  1.8882  1.2066 -1.5147
  256PVA     C343358   0.299   2.720   5.646  0.8889  0.0433 -0.4368
  256PVA     H543359   0.329   2.807   5.706  0.9154 -0.1882 -0.1105
  256PVA     H643360   0.359   2.728   5.555  0.8310 -0.2209 -0.4973
  256PVA     C443361   0.153   2.690   5.610  0.1785  0.5745 -0.6216
  256PVA     H743362   0.095   2.716   5.699  3.5099  0.3231  1.8130
  256PVA     H843363   0.134   2.586   5.583  2.5630 -0.9374  2.8924
  256PVA     C543364   0.124   2.783   5.492  0.0185  1.2704 -1.2749
  256PVA     H943365   0.190   2.780   5.405  2.1757  0.7389  0.3056
  256PVA     O243366   0.124   2.924   5.526  0.0032 -0.0588 -0.5465
  256PVA    H1043367   0.074   2.926   5.609 -0.8550  0.6401 -1.0651
  256PVA     C643368   7.750   2.756   5.437 -0.1029  0.6202  1.0310
  256PVA    H1143369   7.675   2.832   5.462 -0.4083  0.8768 -0.5391
  256PVA    H1243370   7.748   2.782   5.330  5.4759 -2.1857 -0.1402
  256PVA     C743371   7.677   2.626   5.454  0.6946  0.0756  0.6161
  256PVA    H1343372   7.650   2.603   5.558 -1.5993 -2.0048 -0.3241
  256PVA    H1443373   7.756   2.556   5.425 -0.9407 -3.0257  2.9915
  256PVA     C843374   7.533   2.616   5.381 -0.1476 -0.0759 -0.6416
  256PVA    H1543375   7.483   2.521   5.401  1.2281 -0.7177 -0.0588
  256PVA     O343376   7.449   2.704   5.453  0.1548  0.0470  0.1308
  256PVA    H1643377   7.416   2.664   5.536 -0.2961 -0.2317 -0.1752
  256PVA     C943378   7.536   2.651   5.230 -0.0007  0.7907 -0.7651
  256PVA    H1743379   7.617   2.592   5.185  2.0832  1.5514  1.7402
  256PVA    H1843380   7.558   2.757   5.213  3.6026  0.8270  2.6082
  256PVA    C1043381   7.409   2.602   5.158 -0.1502 -0.2602 -0.0393
  256PVA    H1943382   7.376   2.501   5.184 -3.1835  1.1797  2.4325
  256PVA    H2043383   7.329   2.669   5.195  3.4634  3.6066  1.6160
  256PVA    C1143384   7.407   2.605   5.002 -0.2955  0.8025 -1.0076
  256PVA    H2143385   7.485   2.537   4.967  0.9614  0.9621  1.2581
  256PVA     O443386   7.455   2.730   4.983  0.4136  0.6891 -0.4323
  256PVA    H2243387   7.412   2.764   4.902  0.1149 -0.0770 -0.6056
  256PVA    C1243388   7.281   2.583   4.918  0.2636 -0.5212 -0.0109
  256PVA    H2343389   7.205   2.521   4.968  0.0885  1.2215  2.0201
  256PVA    H2443390   7.222   2.675   4.930  1.1960 -0.0095  0.7287
  256PVA    C1343391   7.310   2.568   4.764  0.2785  1.1976 -0.9277
  256PVA    H2543392   7.386   2.643   4.739 -1.4324  2.3185 -3.1563
  256PVA    H2643393   7.228   2.612   4.706 -0.6321  0.5360 -0.1679
  256PVA    C1443394   7.342   2.425   4.705  1.2051 -0.3059 -0.2339
  256PVA    H2743395   7.251   2.363   4.713  1.0028  0.0889  0.6504
  256PVA     O543396   7.437   2.373   4.788  0.7182  0.3727  0.1391
  256PVA    H2843397   7.401   2.294   4.833 -0.7492 -1.1840 -3.3280
  256PVA    C1543398   7.405   2.431   4.561  0.9849  0.6064  0.1775
  256PVA    H2943399   7.497   2.490   4.555  0.6410  1.3362  1.5946
  256PVA    H3043400   7.336   2.484   4.494  1.5045 -1.0458 -1.7642
  256PVA    C1643401   7.418   2.286   4.500 -0.4401 -0.5176 -0.1478
  256PVA    H3143402   7.491   2.229   4.558 -0.0345 -1.4027 -1.4879
  256PVA    H3243403   7.326   2.229   4.519 -1.4809  1.8089  2.6527
  256PVA    C1743404   7.464   2.279   4.351  0.4259  0.1047  0.4431
  256PVA    H3343405   7.458   2.173   4.323 -3.2838  0.6501 -1.4734
  256PVA     O643406   7.605   2.315   4.352  0.6476  0.5681  0.3396
  256PVA    H3443407   7.627   2.398   4.396  2.1542  0.0073  0.7116
  256PVA    C1843408   7.375   2.359   4.249 -0.1731 -1.2374 -1.4195
  256PVA    H3543409   7.408   2.311   4.156  3.6525  0.7683 -1.2964
  256PVA    H3643410   7.408   2.462   4.231  1.0105 -1.4146 -0.4132
  256PVA    C1943411   7.222   2.337   4.265  0.2300  0.5254  1.4014
  256PVA    H3743412   7.184   2.377   4.360 -0.4045 -3.7371  3.1470
  256PVA    H3843413   7.209   2.229   4.271 -1.2410  0.5798 -0.2295
  256PVA    C2043414   7.148   2.410   4.146  0.6388 -0.1924  0.8961
  256PVA    H3943415   7.206   2.494   4.105  1.8526 -1.3084  0.2310
  256PVA     O743416   7.011   2.450   4.179 -0.3410 -0.3576  0.4116
  256PVA    H4043417   6.986   2.393   4.253 -1.2583 -1.3104 -0.5961
  256PVA    C2143418   7.137   2.310   4.022  0.5549 -0.5397  1.2081
  256PVA    H4143419   7.051   2.243   4.040 -1.2183  0.9574 -1.0931
  256PVA    H4243420   7.232   2.259   4.004  1.7167  1.7639  0.4968
  256PVA    C2243421   7.098   2.377   3.886 -0.0191 -0.1415  0.1553
  256PVA    H4343422   7.016   2.445   3.912  0.4078  1.1747 -1.7494
  256PVA    H4443423   7.177   2.445   3.853  0.8245 -0.2587  1.8236
  256PVA    C2343424   7.066   2.271   3.769 -0.1238  1.2485  0.0050
  256PVA    H4543425   6.985   2.313   3.709 -2.4684 -2.3465  0.3350
  256PVA     O843426   7.180   2.245   3.687  0.2791 -0.3317 -0.0017
  256PVA    H4643427   7.261   2.255   3.740  0.3986  1.1902 -0.4369
  256PVA    C2443428   6.994   2.135   3.809  0.2912  0.2508  0.1364
  256PVA    H4743429   7.034   2.064   3.882 -1.0784 -2.0961 -1.2551
  256PVA    H4843430   6.906   2.168   3.864 -2.6942 -3.6675 -1.7739
  256PVA    C2543431   6.946   2.052   3.693  0.5964  0.9800 -0.9460
  256PVA    H4943432   7.019   1.981   3.653 -2.5133 -2.0576 -1.7487
  256PVA    H5043433   6.905   2.118   3.615  0.1826  1.5486 -0.2660
  256PVA    C2643434   6.822   1.962   3.734  0.0651 -0.6679  1.0519
  256PVA    H5143435   6.732   2.021   3.719  0.3503 -0.3183  0.7055
  256PVA     O943436   6.821   1.878   3.622  0.8619  0.0508  0.5316
  256PVA    H5243437   6.911   1.843   3.610  0.0439 -1.9291 -0.1046
  256PVA    C2743438   6.828   1.882   3.863 -0.5315  0.1386 -0.5552
  256PVA    H5343439   6.934   1.854   3.872 -0.5801 -0.4645 -1.7378
  256PVA    H5443440   6.808   1.944   3.951 -1.2472 -1.7091  0.6638
  256PVA    C2843441   6.727   1.765   3.883  0.9941 -1.5351 -0.4217
  256PVA    H5543442   6.752   1.700   3.798 -0.3963 -2.2790 -0.2943
  256PVA    H5643443   6.744   1.716   3.979  1.2376 -0.0317  0.3398
  256PVA    C2943444   6.578   1.816   3.858  0.4946 -0.8448  0.5525
  256PVA    H5743445   6.576   1.835   3.750 -2.4249 -1.8788  0.3380
  256PVA    O1043446   6.537   1.939   3.917 -0.9561 -0.1491 -0.3706
  256PVA    H5843447   6.609   2.003   3.903  0.7222 -2.4071 -3.1775
  256PVA    C3043448   6.481   1.707   3.904  1.1058 -0.0688 -0.2709
  256PVA    H5943449   6.532   1.628   3.960 -0.1277 -1.8545 -1.5728
  256PVA    H6043450   6.421   1.761   3.979  1.5619  0.5832 -0.3689
  256PVA    C3143451   6.402   1.661   3.784  0.1006  0.3217  0.1995
  256PVA    H6143452   6.336   1.741   3.751  2.8333  2.4170 -0.6006
  256PVA    H6243453   6.476   1.642   3.705  0.4693 -2.5304  1.1152
  256PVA    C3243454   6.322   1.529   3.814  0.0936  1.4438  0.0996
  256PVA    H6343455   6.394   1.456   3.852 -2.2699 -0.9370  0.2823
  256PVA    O1143456   6.217   1.544   3.906  0.2848  0.1218 -0.6282
  256PVA    H6443457   6.215   1.472   3.972 -0.3947 -0.0465 -0.8210
  256PVA    C3343458   6.260   1.467   3.679  1.0956 -0.0910  0.0023
  256PVA    H6543459   6.324   1.489   3.592  1.4222  1.0249  0.5069
  256PVA    H6643460   6.180   1.538   3.657  1.0750  0.9768  3.0684
  256PVA    C3443461   6.216   1.320   3.656 -0.6083  0.1638 -1.0397
  256PVA    H6743462   6.271   1.269   3.736 -0.5614 -1.7694 -2.2315
  256PVA    H6843463   6.108   1.308   3.667 -1.1736  4.5075 -0.2485
  256PVA    C3543464   6.261   1.268   3.520  0.0327 -0.4703 -0.2448
  256PVA    H6943465   6.360   1.316   3.516 -0.9469  1.5739 -1.9412
  256PVA    O1243466   6.177   1.340   3.421 -0.2798  0.3028  0.0770
  256PVA    H7043467   6.206   1.296   3.339  2.2713 -0.0533  1.0636
  256PVA    C3643468   6.259   1.110   3.485 -1.1491  0.5250  0.4471
  256PVA    H7143469   6.253   1.061   3.583 -0.6471 -0.3466  0.0578
  256PVA    H7243470   6.185   1.073   3.413  0.5469  2.5950 -2.5679
  256PVA    C3743471   6.402   1.080   3.434  0.5825 -0.0434 -0.4127
  256PVA    H7343472   6.474   1.105   3.513 -1.4623 -3.0143  2.6811
  256PVA    H7443473   6.419   1.146   3.348 -1.3460  0.1018 -0.7142
  256PVA    C3843474   6.440   0.945   3.391  0.1261  0.4157  0.1134
  256PVA    H7543475   6.547   0.937   3.368 -0.0897 -2.8550 -0.2416
  256PVA    O1343476   6.408   0.854   3.486  0.7090 -0.0323 -0.1250
  256PVA    H7643477   6.312   0.855   3.472  1.0628  1.6610 -3.3185
  256PVA    C3943478   6.361   0.896   3.266  0.0201 -0.9910  0.4716
  256PVA    H7743479   6.267   0.844   3.291 -0.6587 -0.7063 -1.2902
  256PVA    H7843480   6.328   0.972   3.194  0.8284 -0.5212  0.5810
  256PVA    C4043481   6.443   0.788   3.191  0.3409  0.1894 -1.8773
  256PVA    H7943482   6.552   0.800   3.199  0.0908  1.2217  3.4207
  256PVA    H8043483   6.427   0.694   3.245  3.1178 -1.7086 -4.1073
  256PVA    C4143484   6.406   0.782   3.040  0.2869 -1.4055 -0.7089
  256PVA    H8143485   6.353   0.875   3.017  0.7572 -0.8410  0.3920
  256PVA    O1443486   6.324   0.666   3.017  0.6919  0.6040  0.0622
  256PVA    H8243487   6.268   0.683   2.939 -0.2512 -3.9408 -0.5210
  256PVA    C4243488   6.532   0.788   2.949 -0.8873  0.5248 -0.3879
  256PVA    H8343489   6.582   0.691   2.953 -2.4191 -0.3358 -1.0632
  256PVA    H8443490   6.586   0.868   2.999 -0.6161 -1.2230  2.2972
  256PVA    C4343491   6.519   0.829   2.800  0.4587  0.3237 -0.8486
  256PVA    H8543492   6.524   0.743   2.732  3.2796  1.1933 -1.9077
  256PVA    H8643493   6.426   0.877   2.768 -0.0996  2.6969  3.5899
  256PVA    C4443494   6.632   0.924   2.762 -0.0185 -0.9874 -1.1012
  256PVA    H8743495   6.639   1.015   2.823 -4.2219 -0.2282 -1.4695
  256PVA    O1543496   6.605   0.952   2.618  0.6183 -0.2513 -0.9412
  256PVA    H8843497   6.607   0.866   2.572 -1.3000 -0.8615  0.0039
  256PVA    C4543498   6.768   0.859   2.773 -0.5930  0.2712 -0.6669
  256PVA    H8943499   6.775   0.755   2.741  3.3056  0.2274 -0.1669
  256PVA    H9043500   6.801   0.855   2.877 -1.4611 -1.5057 -0.4272
  256PVA    C4643501   6.879   0.933   2.687  1.9788  0.0772 -0.2878
  256PVA    H9143502   6.865   0.906   2.582 -0.7589  0.0296  0.0308
  256PVA    H9243503   6.886   1.041   2.702  0.9690  0.0918  0.1242
  256PVA    C4743504   7.022   0.878   2.727  0.3914  0.2357 -0.2302
  256PVA    H9343505   7.027   0.772   2.697 -1.2154  0.5538 -1.8221
  256PVA    O1643506   7.045   0.911   2.853  0.0914 -0.0181 -0.2036
  256PVA    H9443507   7.055   1.008   2.856 -1.1208  0.1029  2.3473
  256PVA    C4843508   7.135   0.939   2.657  0.3051  0.2194  0.1804
  256PVA    H9543509   7.225   0.883   2.684  0.4323 -0.0667 -0.8047
  256PVA    H9643510   7.152   1.048   2.657 -2.8385  0.8171  1.6869
  256PVA    C4943511   7.114   0.909   2.499  1.4716  1.6480 -0.1901
  256PVA    H9743512   7.032   0.964   2.454 -0.8875 -2.4801 -1.4757
  256PVA    H9843513   7.069   0.809   2.491  1.5450  1.2757  2.7211
  256PVA    C5043514   7.243   0.914   2.417 -0.9871 -0.6560 -0.9219
  256PVA    H9943515   7.267   1.021   2.410 -3.4242 -0.0752 -1.1067
  256PVA    O1743516   7.330   0.821   2.478 -0.1323 -0.8704  0.0406
  256PVA   H10043517   7.362   0.880   2.548  0.5587 -3.7174  2.3066
  256PVA    C5143518   7.218   0.865   2.283 -0.8499 -0.3680 -0.5832
  256PVA   H10143519   7.150   0.931   2.227 -2.5462  0.3123  2.1256
  256PVA   H10243520   7.158   0.777   2.308  0.9653 -0.5598  4.0341
  257PVA     C143521   0.276   2.769   6.209  0.0666 -0.1729  1.2666
  257PVA     H143522   0.261   2.694   6.287  1.3754 -3.7249 -1.5838
  257PVA     H243523   0.340   2.850   6.244  0.8121  0.3824 -1.1743
  257PVA     C243524   0.123   2.838   6.176  0.3353 -0.5407  0.1131
  257PVA     H343525   0.041   2.769   6.200  0.0135 -0.6059 -1.1568
  257PVA     O143526   0.095   2.957   6.250 -0.2124  0.1301  0.3793
  257PVA     H443527   0.176   2.996   6.287  1.9423 -2.4443 -1.1956
  257PVA     C343528   0.097   2.874   6.022  1.7004  1.0566 -0.5023
  257PVA     H543529   0.159   2.956   5.982 -0.7746  3.7216  0.7943
  257PVA     H643530   0.111   2.784   5.961  0.1548  1.4006 -1.4019
  257PVA     C443531   7.710   2.899   5.999  0.1418 -0.0043 -1.3458
  257PVA     H743532   7.689   3.007   6.003 -1.0561 -0.1058 -3.5386
  257PVA     H843533   7.642   2.856   6.073 -0.7590  1.3437 -1.3536
  257PVA     C543534   7.651   2.855   5.865  0.0272 -0.8521  0.0947
  257PVA     H943535   7.657   2.746   5.876  0.5684 -0.7928  0.4433
  257PVA     O243536   7.740   2.910   5.765 -0.6411 -0.8514  0.4841
  257PVA    H1043537   7.692   2.989   5.734  0.2788  0.7997  2.9455
  257PVA     C643538   7.513   2.926   5.839  0.7645  0.8319 -0.4235
  257PVA    H1143539   7.461   2.829   5.845  2.4960 -0.1881 -1.1944
  257PVA    H1243540   7.481   2.981   5.929 -3.4351  1.8402 -2.3068
  257PVA     C743541   7.461   2.962   5.702 -0.7081  0.0394 -0.6226
  257PVA    H1343542   7.362   2.926   5.672  1.1443 -4.8856 -1.7134
  257PVA    H1443543   7.503   2.888   5.632 -1.9717  0.4860 -1.9061
  257PVA     C843544   7.513   3.098   5.651  0.3801 -0.5025 -0.6736
  257PVA    H1543545   7.553   3.157   5.734  1.2431 -1.2145 -0.5690
  257PVA     O343546   7.619   3.074   5.563  0.4787 -0.6790 -0.1124
  257PVA    H1643547   7.649   3.164   5.545  1.4254 -1.3646 -2.2615
  257PVA     C943548   7.401   3.150   5.578 -0.9141  1.5287  0.4730
  257PVA    H1743549   7.318   3.142   5.650 -2.8187  0.1132 -1.7263
  257PVA    H1843550   7.380   3.079   5.497 -1.4703  2.9281 -0.6517
  257PVA    C1043551   7.426   3.290   5.516  0.4196 -0.1327  1.4050
  257PVA    H1943552   7.433   3.367   5.594 -1.0648  0.0477  1.3842
  257PVA    H2043553   7.528   3.304   5.477  0.5025 -2.7765  0.4253
  257PVA    C1143554   7.325   3.339   5.410 -0.4596 -0.7262  0.9820
  257PVA    H2143555   7.355   3.286   5.319  0.9945 -0.7904  1.4791
  257PVA     O443556   7.200   3.302   5.456  0.2368  0.5510 -0.0941
  257PVA    H2243557   7.197   3.206   5.471 -6.1448  0.3449  0.1102
  257PVA    C1243558   7.317   3.498   5.403  0.0635  1.2259 -0.2103
  257PVA    H2343559   7.262   3.529   5.493  0.2883  1.6538 -0.2159
  257PVA    H2443560   7.424   3.523   5.412  1.5456 -4.4722  4.8385
  257PVA    C1343561   7.235   3.537   5.272  0.7440 -0.3843  0.4507
  257PVA    H2543562   7.129   3.509   5.281 -0.2748  2.2618 -1.9009
  257PVA    H2643563   7.261   3.489   5.177 -3.0215  0.3376 -1.1037
  257PVA    C1443564   7.207   3.686   5.254 -0.8694 -0.2659 -1.3103
  257PVA    H2743565   7.146   3.730   5.334 -1.3394  0.6979 -2.1724
  257PVA     O543566   7.327   3.760   5.251 -0.0120  0.2043  0.2440
  257PVA    H2843567   7.357   3.753   5.159 -2.5494 -0.7240 -0.5752
  257PVA    C1543568   7.124   3.722   5.123 -0.0466 -0.5425 -0.0453
  257PVA    H2943569   7.175   3.680   5.035 -3.1774  1.9723 -3.3805
  257PVA    H3043570   7.024   3.677   5.128  0.1882 -1.0601  0.0825
  257PVA    C1643571   7.116   3.869   5.097  1.1685  0.8341  0.7643
  257PVA    H3143572   7.068   3.926   5.177  2.9593 -1.8158  3.9777
  257PVA    H3243573   7.223   3.886   5.078  1.2075  0.0144  0.1752
  257PVA    C1743574   7.025   3.894   4.973  0.6081 -0.2638 -1.4864
  257PVA    H3343575   6.939   3.828   4.990  3.0396 -2.7522  3.1897
  257PVA     O643576   7.076   3.869   4.838  0.0913  0.6146  0.3601
  257PVA    H3443577   7.161   3.830   4.866  1.7519  2.4164 -1.8501
  257PVA    C1843578   6.956   4.036   4.985  1.3989 -0.1322 -0.1889
  257PVA    H3543579   6.882   4.046   4.905  0.6764 -0.4617  0.4311
  257PVA    H3643580   6.891   4.022   5.072 -1.6069  0.9816 -2.1220
  257PVA    C1943581   7.047   4.158   5.006  0.5065  0.1974 -1.0476
  257PVA    H3743582   7.103   4.158   4.912  0.4984  1.0557 -1.0627
  257PVA    H3843583   7.125   4.136   5.080  1.0816 -1.1009 -2.0068
  257PVA    C2043584   6.958   4.288   5.024 -0.4554  0.3000 -0.7670
  257PVA    H3943585   6.873   4.261   5.088  1.7797  3.1965  3.9589
  257PVA     O743586   6.908   4.306   4.899  0.1760 -0.6624  0.9844
  257PVA    H4043587   6.873   4.224   4.861  0.8886 -0.3343 -0.4542
  257PVA    C2143588   7.040   4.421   5.060  0.4886  0.5455  0.0292
  257PVA    H4143589   7.116   4.419   4.980  0.2530 -0.6332 -0.1919
  257PVA    H4243590   7.091   4.404   5.155  1.0467  0.5591 -0.2621
  257PVA    C2243591   6.974   4.561   5.056  1.0196  0.2918  0.7943
  257PVA    H4343592   6.890   4.560   4.986 -2.6719 -1.3734  4.8010
  257PVA    H4443593   6.916   4.559   5.149  1.3179  0.2518  0.9810
  257PVA    C2343594   7.072   4.682   5.061 -0.6311  0.7669 -0.9484
  257PVA    H4543595   7.032   4.735   4.974  0.6771  1.7430 -0.9902
  257PVA     O843596   7.199   4.660   5.025 -0.6962 -0.2981 -0.4300
  257PVA    H4643597   7.269   4.705   5.076  0.7769 -0.0675 -2.4830
  257PVA    C2443598   7.078   4.768   5.191 -1.0711  0.3749  0.0135
  257PVA    H4743599   7.138   4.859   5.191 -3.1372  1.8459  2.0733
  257PVA    H4843600   7.111   4.703   5.272 -1.4790  0.7005  0.4469
  257PVA    C2543601   6.936   4.817   5.229 -0.3585 -0.6299 -1.1471
  257PVA    H4943602   6.904   4.895   5.159 -4.2175 -0.1458  0.8806
  257PVA    H5043603   6.856   4.742   5.228  0.0011 -1.0530 -0.1196
  257PVA    C2643604   6.924   4.876   5.371  0.1543 -0.3646  0.0255
  257PVA    H5143605   6.973   4.811   5.445  0.7593 -0.4902 -0.4832
  257PVA     O943606   6.998   4.992   5.373  0.3525 -0.0950 -0.5778
  257PVA    H5243607   6.963   5.055   5.308  4.2366  1.2952 -1.6364
  257PVA    C2743608   6.780   4.904   5.402  0.1454  0.4617  0.8934
  257PVA    H5343609   6.702   4.829   5.384 -0.0925  0.2992  2.5080
  257PVA    H5443610   6.738   4.989   5.345 -2.6556 -1.3722  0.0124
  257PVA    C2843611   6.742   4.927   5.548 -0.0976  0.0273 -0.2107
  257PVA    H5543612   6.773   4.847   5.617 -2.8330 -2.0401 -1.1895
  257PVA    H5643613   6.809   5.004   5.587 -1.4499 -0.8110  4.3542
  257PVA    C2943614   6.591   4.980   5.566 -0.5458  0.7518  0.3711
  257PVA    H5743615   6.552   5.035   5.479 -1.0162  1.0944  0.7917
  257PVA    O1043616   6.495   4.875   5.570 -0.5068  0.8604  0.4781
  257PVA    H5843617   6.410   4.913   5.598 -1.9824 -1.4730 -0.5471
  257PVA    C3043618   6.553   5.060   5.688 -1.5849 -0.1949  0.0505
  257PVA    H5943619   6.575   5.165   5.664  5.0509 -0.5437  2.4313
  257PVA    H6043620   6.445   5.061   5.709 -1.2585  3.4011  2.4609
  257PVA    C3143621   6.628   5.004   5.814  0.5697  0.3312 -0.3263
  257PVA    H6143622   6.736   5.022   5.812  0.5179  0.9356  1.0618
  257PVA    H6243623   6.610   4.896   5.827 -2.4846  0.3908 -2.7964
  257PVA    C3243624   6.591   5.066   5.943  0.6088 -0.0403  0.1397
  257PVA    H6343625   6.487   5.050   5.974  0.8293  2.1508  2.3360
  257PVA    O1143626   6.612   5.206   5.929  0.3494  0.8132  0.4538
  257PVA    H6443627   6.701   5.223   5.893  0.7903 -5.6160 -2.9313
  257PVA    C3343628   6.674   5.005   6.054 -0.1266 -0.0577 -0.6657
  257PVA    H6543629   6.781   5.023   6.044 -0.6603  3.8677 -0.6738
  257PVA    H6643630   6.635   4.903   6.065 -2.5907  0.9798  1.2080
  257PVA    C3443631   6.621   5.066   6.189  0.2319  0.2297 -0.4966
  257PVA    H6743632   6.513   5.056   6.208  0.9784 -1.1264  4.5531
  257PVA    H6843633   6.636   5.174   6.178 -0.9554  0.2328 -2.5374
  257PVA    C3543634   6.702   5.005   6.309  0.1941 -0.0268  0.5200
  257PVA    H6943635   6.725   4.898   6.297  0.7614  0.2766 -1.5966
  257PVA    O1243636   6.827   5.071   6.317 -0.1827 -0.5025  0.6009
  257PVA    H7043637   6.845   5.131   6.392  2.6971  0.2615 -0.5809
  257PVA    C3643638   6.631   5.038   6.436  0.4983 -0.3117 -1.2190
  257PVA    H7143639   6.587   5.138   6.426  0.8609  0.4149  2.8866
  257PVA    H7243640   6.542   4.975   6.439 -0.6563  0.7902 -5.1612
  257PVA    C3743641   6.720   5.037   6.572 -0.2961 -0.3595 -1.0081
  257PVA    H7343642   6.777   4.946   6.591 -1.2280 -1.0006 -1.2292
  257PVA    H7443643   6.652   5.026   6.657  1.9335 -0.3714  0.8440
  257PVA    C3843644   6.795   5.164   6.614 -0.2660 -1.5962 -0.2097
  257PVA    H7543645   6.737   5.255   6.593  3.1493  1.3692  1.9979
  257PVA    O1343646   6.921   5.165   6.550 -0.3177 -0.3420 -0.7310
  257PVA    H7643647   6.992   5.203   6.605  1.8860  0.9012 -4.0910
  257PVA    C3943648   6.808   5.174   6.770 -0.3449 -0.1104 -0.4788
  257PVA    H7743649   6.869   5.105   6.829 -1.0815 -1.0585 -0.8104
  257PVA    H7843650   6.717   5.141   6.821 -1.3045  0.9128 -1.4756
  257PVA    C4043651   6.828   5.326   6.814  0.5097  0.1377  0.3720
  257PVA    H7943652   6.752   5.398   6.782  1.8175  2.0520  1.4277
  257PVA    H8043653   6.905   5.344   6.738 -0.0231  0.2420 -0.1511
  257PVA    C4143654   6.863   5.348   6.963 -0.6923 -0.7402  1.2077
  257PVA    H8143655   6.969   5.348   6.992  0.5552  4.8823 -1.8713
  257PVA    O1443656   6.837   5.481   6.971 -0.2627  0.6021  0.2257
  257PVA    H8243657   6.910   5.532   6.933  1.4733 -3.6903 -3.0389
  257PVA    C4243658   6.765   5.269   7.048  0.3122  0.8570 -0.4917
  257PVA    H8343659   6.663   5.260   7.009 -0.2625  3.9746  0.0035
  257PVA    H8443660   6.801   5.166   7.060  2.9608  1.8078  0.5279
  257PVA    C4343661   6.748   5.317   7.184  0.1957 -0.0069  0.9111
  257PVA    H8543662   6.692   5.411   7.177  0.9916  0.3880 -0.8140
  257PVA    H8643663   6.848   5.330   7.226 -0.4862  4.6198  1.6851
  257PVA    C4443664   6.665   5.233   7.290  1.1329 -0.5808  0.7831
  257PVA    H8743665   6.730   5.150   7.320 -0.4776 -1.7844  1.1072
  257PVA    O1543666   6.536   5.188   7.236 -0.8579  0.2263 -0.0193
  257PVA    H8843667   6.495   5.276   7.245 -0.4244  0.3254  1.2725
  257PVA    C4543668   6.656   5.306   7.437 -0.0633 -0.3880 -0.5955
  257PVA    H8943669   6.751   5.355   7.463 -1.4640  1.0459  2.3511
  257PVA    H9043670   6.648   5.233   7.519  2.5058  1.9225  1.9107
  257PVA    C4643671   6.548   5.432   7.446 -0.1447  0.2039 -0.5205
  257PVA    H9143672   6.566   5.509   7.371 -5.8113  1.5000 -1.0631
  257PVA    H9243673   6.444   5.405   7.422 -0.7254  1.8868 -0.0405
  257PVA    C4743674   6.557   5.510   7.584 -0.4465  0.0986 -0.5133
  257PVA    H9343675   6.485   5.593   7.577 -1.7310 -0.0918  5.3419
  257PVA    O1643676   6.685   5.576   7.592  0.0802 -0.4327  0.1899
  257PVA    H9443677   6.698   5.618   7.679 -2.5413 -1.3163  1.1126
  257PVA    C4843678   6.521   5.428   7.706  0.3769 -0.8856  0.5270
  257PVA    H9543679   6.415   5.426   7.732  0.3387 -2.9097  0.3669
  257PVA    H9643680   6.528   5.321   7.682 -0.2896 -0.8382  0.0849
  257PVA    C4943681   6.609   5.462   7.831  0.9728  0.2411  0.8375
  257PVA    H9743682   6.604   5.571   7.834 -4.4796  0.2853 -0.2570
  257PVA    H9843683   6.716   5.438   7.822  1.0059  0.3468  0.9469
  257PVA    C5043684   6.569   5.382   7.969  0.4778 -0.2085 -0.7905
  257PVA    H9943685   6.605   5.279   7.972 -0.8007 -0.6551  0.6249
  257PVA    O1743686   6.426   5.360   7.974  1.2316 -0.1949  0.1492
  257PVA   H10043687   6.398   5.440   8.021  3.9638 -0.0516  1.7568
  257PVA    C5143688   6.635   5.450   0.003  0.1534  1.1573 -0.2349
  257PVA   H10143689   6.564   5.451   0.087  2.5603 -2.1563  2.1229
  257PVA   H10243690   6.662   5.551   8.066  0.8911  0.7744 -0.8229
  258PVA     C143691   0.295   1.519   1.858 -0.8479 -0.1785 -0.3101
  258PVA     H143692   0.323   1.589   1.937  0.6253 -0.0740 -0.8894
  258PVA     H243693   0.324   1.584   1.775 -0.0294  0.7895  0.7090
  258PVA     C243694   0.389   1.398   1.854  0.0756  0.0960  0.4259
  258PVA     H343695   0.382   1.337   1.944  0.7149 -2.6854 -1.2743
  258PVA     O143696   0.343   1.295   1.763  0.2599 -0.5488  0.5398
  258PVA     H443697   0.408   1.295   1.691  0.4226 -0.1502  0.6854
  258PVA     C343698   0.533   1.427   1.809 -0.0916 -0.4702  0.4110
  258PVA     H543699   0.535   1.469   1.707  5.1722  1.2220  0.9331
  258PVA     H643700   0.558   1.505   1.882  1.1167  0.5208 -0.9905
  258PVA     C443701   0.656   1.341   1.815  0.4927  0.2926 -0.1023
  258PVA     H743702   0.741   1.404   1.784  0.7462  0.2003  0.3873
  258PVA     H843703   0.636   1.257   1.748  2.2076  0.3502 -0.7534
  258PVA     C543704   0.706   1.298   1.952 -0.3600  0.8453  0.1520
  258PVA     H943705   0.751   1.383   2.005  0.6826  0.3728  0.0457
  258PVA     O243706   0.600   1.249   2.017  0.2361  0.1527  1.1585
  258PVA    H1043707   0.613   1.152   2.015  1.0956  0.2708  0.4137
  258PVA     C643708   0.840   1.219   1.954  0.9114  0.6962 -0.2985
  258PVA    H1143709   0.860   1.191   1.850 -1.1754 -2.1620 -0.0475
  258PVA    H1243710   0.918   1.294   1.969  2.3666  0.1320 -4.0945
  258PVA     C743711   0.844   1.109   2.068 -0.3943 -0.6644 -0.1772
  258PVA    H1343712   0.762   1.037   2.054  0.7286 -1.4465 -4.0214
  258PVA    H1443713   0.815   1.160   2.161 -2.5022  3.0232 -2.6328
  258PVA     C843714   0.980   1.053   2.088  1.3469  1.5852  0.3609
  258PVA    H1543715   1.044   1.054   1.999 -0.0010 -2.3659 -0.8752
  258PVA     O343716   1.057   1.112   2.184 -0.3778 -0.0707 -0.5644
  258PVA    H1643717   1.011   1.080   2.264 -1.4018  2.8494  0.1380
  258PVA     C943718   0.974   0.906   2.106  0.6570 -1.5579 -0.7179
  258PVA    H1743719   0.921   0.871   2.017 -1.0643  1.1053 -0.8435
  258PVA    H1843720   0.894   0.902   2.181  0.9701 -0.3663 -0.2888
  258PVA    C1043721   1.086   0.810   2.149 -0.4533  0.9077  0.2653
  258PVA    H1943722   1.180   0.848   2.107 -0.4017 -0.2646 -0.7229
  258PVA    H2043723   1.093   0.821   2.258 -0.5218  3.7387  0.0622
  258PVA    C1143724   1.060   0.656   2.106  0.0352  0.5527  0.4338
  258PVA    H2143725   1.072   0.669   1.998  1.4402 -0.1898  0.4696
  258PVA     O443726   0.930   0.614   2.133 -0.2825  1.1816  0.0392
  258PVA    H2243727   0.872   0.691   2.116 -1.6545  0.3526  0.7941
  258PVA    C1243728   1.180   0.557   2.143  0.0094  0.2390  0.2642
  258PVA    H2343729   1.252   0.590   2.067  0.8268  0.3288  1.0544
  258PVA    H2443730   1.232   0.564   2.240  0.9523  1.1745 -0.2898
  258PVA    C1343731   1.178   0.401   2.117 -0.4962  1.0260  0.5557
  258PVA    H2543732   1.143   0.381   2.015  2.9919  0.9388 -0.7379
  258PVA    H2643733   1.096   0.365   2.180  1.7236 -4.0143  0.9886
  258PVA    C1443734   1.311   0.334   2.180  0.9103 -0.1121 -0.0420
  258PVA    H2743735   1.314   0.383   2.278 -1.2096 -0.2124  0.1228
  258PVA     O543736   1.429   0.397   2.132  0.8228  0.2691  0.0917
  258PVA    H2843737   1.435   0.377   2.037 -3.9287  2.2449 -0.8970
  258PVA    C1543738   1.327   0.170   2.159 -0.2409  0.7484 -0.6934
  258PVA    H2943739   1.317   0.153   2.051  0.9753 -1.7458 -0.4760
  258PVA    H3043740   1.246   0.119   2.212  1.6050 -0.2727  1.3128
  258PVA    C1643741   1.452   0.082   2.205 -0.1645  0.0669 -0.5427
  258PVA    H3143742   1.506   0.076   2.109  0.5913  2.1813 -0.2919
  258PVA    H3243743   1.505   0.146   2.277 -5.2108 -0.5649  4.4273
  258PVA    C1743744   1.423   7.626   2.268  1.1175 -0.5827 -0.7521
  258PVA    H3343745   1.323   7.596   2.232  1.4987  1.5921 -4.0904
  258PVA     O643746   1.431   7.646   2.405 -0.0248  0.2402 -0.5204
  258PVA    H3443747   1.386   7.573   2.451  0.7296 -1.3809 -2.1896
  258PVA    C1843748   1.497   7.502   2.237 -1.3834  0.2525  0.2405
  258PVA    H3543749   1.540   7.481   2.139 -0.8328 -2.8742  1.0271
  258PVA    H3643750   1.583   7.490   2.305 -0.3628 -4.0298 -1.4337
  258PVA    C1943751   1.408   7.367   2.255  0.1779 -0.0680 -0.2243
  258PVA    H3743752   1.321   7.373   2.189 -2.4408 -1.7151  2.7635
  258PVA    H3843753   1.375   7.367   2.360 -2.5018  3.0646 -0.9288
  258PVA    C2043754   1.475   7.228   2.244 -0.7690 -0.1224 -1.1735
  258PVA    H3943755   1.472   7.189   2.142 -4.3511 -4.3556  0.2340
  258PVA     O743756   1.582   7.202   2.341 -0.2245  0.3165  0.1188
  258PVA    H4043757   1.663   7.180   2.292  1.1355  4.0947  0.3214
  258PVA    C2143758   1.353   7.135   2.294  0.8129  0.6557  0.7470
  258PVA    H4143759   1.255   7.183   2.284  1.2748  2.0855  2.5016
  258PVA    H4243760   1.358   7.132   2.403  1.7275  1.3953  0.7409
  258PVA    C2243761   1.365   6.984   2.238 -0.6963  0.5284 -1.3922
  258PVA    H4343762   1.346   6.998   2.131 -0.9995 -0.1358 -1.4307
  258PVA    H4443763   1.469   6.952   2.249 -0.4903  1.6084  0.0686
  258PVA    C2343764   1.257   6.892   2.297  0.2026 -0.5491 -0.2702
  258PVA    H4543765   1.160   6.930   2.263  1.4077  0.1738 -3.2252
  258PVA     O843766   1.259   6.871   2.441 -0.2776 -0.6274 -0.3886
  258PVA    H4643767   1.180   6.823   2.469 -1.2041  2.3592  3.0028
  258PVA    C2443768   1.278   6.747   2.241 -0.2846 -0.1168  0.3812
  258PVA    H4743769   1.373   6.703   2.275 -0.0554  2.3311  3.3273
  258PVA    H4843770   1.285   6.755   2.132  0.8602  0.8647  0.4989
  258PVA    C2543771   1.159   6.655   2.259 -0.4130  0.3633  0.5473
  258PVA    H4943772   1.078   6.723   2.231 -1.3572 -2.2545 -4.2127
  258PVA    H5043773   1.159   6.640   2.368 -1.6270 -1.5520  0.3267
  258PVA    C2643774   1.132   6.536   2.156  1.2729  1.1209  0.1961
  258PVA    H5143775   1.127   6.572   2.053 -2.6022 -0.7149 -0.4342
  258PVA     O943776   1.227   6.431   2.180  0.3387  0.8336 -0.3057
  258PVA    H5243777   1.316   6.467   2.193 -0.1824  3.2118 -2.5557
  258PVA    C2743778   0.984   6.474   2.181  0.0462  0.3209 -0.1569
  258PVA    H5343779   0.939   6.509   2.274  2.3395  2.3442  0.2851
  258PVA    H5443780   0.990   6.364   2.177  1.9552  0.4008 -1.2741
  258PVA    C2843781   0.887   6.526   2.060  0.0500 -0.3725  0.3780
  258PVA    H5543782   0.874   6.633   2.080  3.3871  0.4665 -1.1117
  258PVA    H5643783   0.944   6.524   1.966 -0.5101  2.4891 -0.1261
  258PVA    C2943784   0.760   6.451   2.016 -0.1546  1.2037 -0.7106
  258PVA    H5743785   0.791   6.348   1.997 -3.6212  0.2420 -1.8917
  258PVA    O1043786   0.672   6.426   2.136 -0.8242  0.7471  0.2157
  258PVA    H5843787   0.657   6.511   2.181  2.3135  0.8934  1.2053
  258PVA    C3043788   0.672   6.531   1.917  0.8563  0.1990  0.6145
  258PVA    H5943789   0.735   6.574   1.838  1.6479 -1.7133  0.1407
  258PVA    H6043790   0.628   6.622   1.960  0.9131 -0.1657  1.4767
  258PVA    C3143791   0.564   6.444   1.853 -0.1738  0.4338  0.0128
  258PVA    H6143792   0.466   6.491   1.863 -0.3114  0.2713 -0.5324
  258PVA    H6243793   0.563   6.354   1.916  0.6327 -1.6479 -2.7600
  258PVA    C3243794   0.582   6.408   1.707 -0.7495  1.4110 -0.0573
  258PVA    H6343795   0.682   6.373   1.681 -1.1245  0.8751 -0.8543
  258PVA    O1143796   0.515   6.283   1.677 -0.5169 -0.5636  0.1702
  258PVA    H6443797   0.560   6.224   1.741  2.1847  0.8208 -0.3108
  258PVA    C3343798   0.536   6.507   1.597 -0.0998 -0.1657 -0.0598
  258PVA    H6543799   0.619   6.579   1.606 -0.6451  1.2207 -4.1535
  258PVA    H6643800   0.441   6.552   1.626 -1.2329 -1.0844 -2.1570
  258PVA    C3443801   0.520   6.450   1.447 -0.2166 -0.2574 -0.4558
  258PVA    H6743802   0.608   6.386   1.434  0.6030  0.6063  0.6929
  258PVA    H6843803   0.430   6.387   1.443 -2.5365  2.8389 -4.3741
  258PVA    C3543804   0.531   6.556   1.339  1.0630  0.2064 -0.6088
  258PVA    H6943805   0.623   6.612   1.360 -0.3181  2.8729 -1.2157
  258PVA    O1243806   0.413   6.644   1.361 -0.3339 -0.6837 -0.1835
  258PVA    H7043807   0.365   6.625   1.279  0.5208  2.7425 -1.6329
  258PVA    C3643808   0.538   6.506   1.187 -0.5954  0.5300  0.4206
  258PVA    H7143809   0.552   6.590   1.117  1.2341 -2.4321 -3.0834
  258PVA    H7243810   0.643   6.476   1.179  0.0799  2.2907  1.9869
  258PVA    C3743811   0.451   6.403   1.128  0.2321 -0.4433  0.3295
  258PVA    H7343812   0.360   6.462   1.111  0.2762 -0.9449 -1.9160
  258PVA    H7443813   0.442   6.320   1.199 -0.7357 -1.2429 -0.6836
  258PVA    C3843814   0.480   6.348   0.982  0.2593  0.2781 -0.6765
  258PVA    H7543815   0.532   6.251   0.985  2.9514  1.6442 -0.4329
  258PVA    O1343816   0.546   6.439   0.890  0.1870  0.2321  0.1862
  258PVA    H7643817   0.642   6.427   0.893  0.6928  3.2083 -0.6142
  258PVA    C3943818   0.339   6.324   0.922 -0.9940 -0.2397  0.0747
  258PVA    H7743819   0.363   6.310   0.816  1.8381  1.1802  0.4501
  258PVA    H7843820   0.285   6.420   0.922 -1.7842 -0.6714  0.1370
  258PVA    C4043821   0.256   6.197   0.970 -0.1149  1.0657 -1.1746
  258PVA    H7943822   0.301   6.100   0.946  0.2284 -0.2011  3.5539
  258PVA    H8043823   0.240   6.192   1.079 -0.0962 -0.6357 -1.2257
  258PVA    C4143824   0.102   6.206   0.926 -1.0330 -0.5751  0.3154
  258PVA    H8143825   0.090   6.296   0.864  0.6014  1.1319  2.3189
  258PVA    O1443826   0.020   6.194   1.030  0.0925  0.2424  0.4968
  258PVA    H8243827   0.067   6.228   1.109  4.1022 -1.4418 -0.9438
  258PVA    C4243828   0.069   6.084   0.838 -0.4621  0.0833  0.0888
  258PVA    H8343829   0.090   5.990   0.890 -0.2421 -0.0373 -0.2229
  258PVA    H8443830   0.146   6.093   0.761  0.3448  0.5360  0.9302
  258PVA    C4343831   7.693   6.071   0.787 -0.2279  0.1933  0.8366
  258PVA    H8543832   7.686   6.160   0.723 -1.9480  0.2240  1.0114
  258PVA    H8643833   7.626   6.078   0.874  0.8547  1.3249  1.6186
  258PVA    C4443834   7.644   5.946   0.703 -0.1357 -1.7672 -0.1396
  258PVA    H8743835   7.720   5.903   0.636 -0.2580 -2.1842 -0.0146
  258PVA    O1543836   7.615   5.849   0.811 -0.7485 -0.3181  1.0246
  258PVA    H8843837   7.656   5.893   0.888 -0.5282  2.9218 -0.7496
  258PVA    C4543838   7.522   5.952   0.602 -0.1664  0.3038 -0.6024
  258PVA    H8943839   7.547   6.020   0.520 -0.1740  1.9120  0.6824
  258PVA    H9043840   7.421   5.966   0.644 -1.9691 -1.9807 -3.7126
  258PVA    C4643841   7.521   5.815   0.529  0.2615 -0.2561  0.4855
  258PVA    H9143842   7.617   5.789   0.482 -0.4435  1.4415 -2.1636
  258PVA    H9243843   7.494   5.733   0.596 -3.1859  0.1458 -0.2313
  258PVA    C4743844   7.421   5.812   0.404 -0.1388  0.5156 -0.4682
  258PVA    H9343845   7.344   5.886   0.428 -0.4053  0.2035 -0.3535
  258PVA    O1643846   7.492   5.847   0.285  0.0649  0.1265 -0.3054
  258PVA    H9443847   7.586   5.831   0.305  0.6894  2.7588 -0.7164
  258PVA    C4843848   7.359   5.674   0.376  0.2644 -1.2707 -0.3130
  258PVA    H9543849   7.439   5.602   0.353  2.5325  1.4122 -1.3224
  258PVA    H9643850   7.297   5.643   0.461  1.0604  2.2604  1.7609
  258PVA    C4943851   7.257   5.668   0.255  0.1453 -0.8380 -0.9146
  258PVA    H9743852   7.306   5.715   0.169 -2.8629 -1.3250 -3.0591
  258PVA    H9843853   7.180   5.739   0.288 -0.8849 -2.0903 -0.4824
  258PVA    C5043854   7.183   5.540   0.219  0.3699  1.5898 -0.7779
  258PVA    H9943855   7.174   5.540   0.109  2.4236  0.3982 -0.9929
  258PVA    O1743856   7.257   5.419   0.236 -0.6007  0.0391  0.4243
  258PVA   H10043857   7.199   5.367   0.294  0.5731 -0.1505  1.4932
  258PVA    C5143858   7.045   5.518   0.277  0.1711 -0.5217  1.2100
  258PVA   H10143859   6.995   5.613   0.257 -1.4533 -1.7053 -0.5887
  258PVA   H10243860   7.052   5.502   0.386  1.6741 -2.4458  0.8799
  259PVA     C143861   0.064   1.659   2.098  0.1139 -0.6779 -0.0557
  259PVA     H143862   0.103   1.754   2.060  0.8466  0.0271  2.2801
  259PVA     H243863   0.160   1.607   2.100 -0.0080 -1.4807 -4.3717
  259PVA     C243864   7.763   1.692   2.232  0.0227  0.6373  0.1265
  259PVA     H343865   7.672   1.633   2.251  1.1742  0.0310  5.0189
  259PVA     O143866   7.732   1.826   2.242 -0.7494  0.2950 -0.1676
  259PVA     H443867   7.711   1.858   2.332  1.0998  6.8429 -1.5496
  259PVA     C343868   0.087   1.664   2.354  0.3730 -0.3339 -0.4517
  259PVA     H543869   0.115   1.559   2.370  3.6227  0.5512  0.3533
  259PVA     H643870   0.017   1.701   2.430  0.7417  0.9267 -0.6889
  259PVA     C443871   0.217   1.757   2.364  0.7998  0.2678 -0.2060
  259PVA     H743872   0.280   1.722   2.280  0.2990  0.9123 -0.8656
  259PVA     H843873   0.191   1.863   2.355 -0.3962  0.1823  1.7885
  259PVA     C543874   0.299   1.726   2.488  1.0977 -0.0059  0.0697
  259PVA     H943875   0.317   1.620   2.508  1.6455 -0.0391 -0.5773
  259PVA     O243876   0.227   1.789   2.602 -0.6177  0.0904 -0.0247
  259PVA    H1043877   0.234   1.715   2.665 -0.6046 -2.1571 -2.5119
  259PVA     C643878   0.439   1.798   2.480 -0.2362  0.1260 -0.3125
  259PVA    H1143879   0.460   1.819   2.586 -0.7764 -2.5642  0.4263
  259PVA    H1243880   0.521   1.737   2.441 -1.6330  0.1638 -3.6172
  259PVA     C743881   0.440   1.948   2.416  0.8109  0.5138  0.1028
  259PVA    H1343882   0.352   2.001   2.453  1.5458  0.6808  1.7111
  259PVA    H1443883   0.422   1.959   2.309  1.6474  5.5816  0.2597
  259PVA     C843884   0.548   2.045   2.441 -0.3824  0.3806  0.7105
  259PVA    H1543885   0.644   2.007   2.402 -0.1344  0.4211  1.2701
  259PVA     O343886   0.565   2.069   2.575 -0.2978 -0.4730  0.0854
  259PVA    H1643887   0.477   2.096   2.606 -0.3598 -0.6878  0.1042
  259PVA     C943888   0.532   2.174   2.350 -0.2961  0.0239 -0.1165
  259PVA    H1743889   0.424   2.195   2.353 -0.2699  0.1011  0.3405
  259PVA    H1843890   0.566   2.159   2.247 -1.7766  0.5881 -0.7152
  259PVA    C1043891   0.619   2.283   2.414 -0.8841 -0.6032  0.3314
  259PVA    H1943892   0.597   2.382   2.373  1.8445  0.3123  0.8303
  259PVA    H2043893   0.565   2.288   2.509 -0.4620 -0.3315  0.5630
  259PVA    C1143894   0.782   2.267   2.424 -0.2569 -0.0889  1.1824
  259PVA    H2143895   0.811   2.171   2.469  1.2147 -0.6488 -0.8133
  259PVA     O443896   0.819   2.297   2.288  0.0846  1.6508 -0.1104
  259PVA    H2243897   0.833   2.390   2.267 -5.8646  2.3994 -2.9791
  259PVA    C1243898   0.849   2.383   2.488  0.0418 -0.6995 -0.5970
  259PVA    H2343899   0.862   2.473   2.426 -2.3905  2.8876  3.5718
  259PVA    H2443900   0.801   2.421   2.578 -1.3679 -0.7310 -1.3068
  259PVA    C1343901   1.005   2.362   2.517  0.0814  0.9081  0.7224
  259PVA    H2543902   1.036   2.289   2.442 -4.9533  1.5998 -2.4900
  259PVA    H2643903   1.023   2.309   2.612  0.5828 -2.1118 -0.9438
  259PVA    C1443904   1.099   2.483   2.513  0.0528 -0.3736 -0.3904
  259PVA    H2743905   1.131   2.493   2.409  0.2466  1.1626 -0.2076
  259PVA     O543906   1.030   2.590   2.564  0.4815  0.0536 -0.8154
  259PVA    H2843907   1.091   2.652   2.608 -1.9241  0.6366  2.0435
  259PVA    C1543908   1.228   2.466   2.589  0.4614  0.0440 -0.4758
  259PVA    H2943909   1.266   2.377   2.538  2.3920  0.0306  0.9087
  259PVA    H3043910   1.205   2.432   2.691 -0.1079  0.5233 -0.4375
  259PVA    C1643911   1.332   2.583   2.564 -0.7628 -0.8234 -0.5905
  259PVA    H3143912   1.341   2.601   2.456 -1.1976  0.7434 -0.3811
  259PVA    H3243913   1.279   2.672   2.601 -0.6278 -1.7233  2.0059
  259PVA    C1743914   1.472   2.562   2.632 -0.5370 -0.5319 -0.6148
  259PVA    H3343915   1.517   2.662   2.625 -0.4031 -0.5342  0.0863
  259PVA     O643916   1.470   2.532   2.773  0.9816 -0.6717 -0.7554
  259PVA    H3443917   1.381   2.499   2.794  0.4371  0.8812 -0.5006
  259PVA    C1843918   1.568   2.461   2.555  0.1219 -0.1810 -0.1428
  259PVA    H3543919   1.541   2.359   2.587  1.4259  0.7593  4.8268
  259PVA    H3643920   1.549   2.475   2.448  3.7891  3.1433 -0.5911
  259PVA    C1943921   1.716   2.482   2.585  0.8800 -0.5350  0.6784
  259PVA    H3743922   1.725   2.591   2.601 -3.2265  0.1607 -0.5899
  259PVA    H3843923   1.746   2.455   2.687 -0.3789 -4.7707  0.0828
  259PVA    C2043924   1.830   2.396   2.512  0.0847  0.7283 -0.6428
  259PVA    H3943925   1.916   2.389   2.579 -0.9276 -0.1389  0.6171
  259PVA     O743926   1.792   2.260   2.494 -0.9288 -0.1577 -0.0433
  259PVA    H4043927   1.706   2.234   2.529  0.3783 -1.1152  2.7807
  259PVA    C2143928   1.888   2.442   2.373 -0.0850 -0.2816 -0.2707
  259PVA    H4143929   1.805   2.467   2.305 -0.7475 -2.6784 -0.4547
  259PVA    H4243930   1.936   2.359   2.319 -1.7289 -0.5941 -1.3405
  259PVA    C2243931   1.980   2.566   2.377 -0.2052 -1.1640 -0.3856
  259PVA    H4343932   1.932   2.625   2.456  0.8476 -0.3169 -0.3611
  259PVA    H4443933   2.079   2.548   2.422  0.4083  3.7752  0.7378
  259PVA    C2343934   2.008   2.645   2.240  1.3782  0.3029 -0.3468
  259PVA    H4543935   2.072   2.585   2.175  0.7925 -0.8018  0.0607
  259PVA     O843936   1.884   2.669   2.167 -0.3478 -0.4140 -0.7673
  259PVA    H4643937   1.825   2.736   2.206 -1.8922 -3.1089  1.9504
  259PVA    C2443938   2.077   2.775   2.266 -0.1271  0.3075 -0.3437
  259PVA    H4743939   2.035   2.859   2.323 -1.7160 -0.0872 -0.9055
  259PVA    H4843940   2.175   2.750   2.309 -0.4419 -3.1561 -1.3905
  259PVA    C2543941   2.113   2.835   2.136 -0.3418  0.4595  0.4096
  259PVA    H4943942   2.025   2.880   2.088  1.5874 -0.1187 -4.2721
  259PVA    H5043943   2.138   2.756   2.065  1.2118 -0.5566  2.0169
  259PVA    C2643944   2.217   2.957   2.140  1.4141 -0.2472 -0.6717
  259PVA    H5143945   2.313   2.930   2.187 -0.3809 -4.8192  0.9149
  259PVA     O943946   2.163   3.051   2.226  0.2658 -0.2720 -0.4838
  259PVA    H5243947   2.072   3.064   2.194  0.2303  3.6457  0.6671
  259PVA    C2743948   2.250   3.023   2.009 -0.5176 -0.6589  0.3749
  259PVA    H5343949   2.171   3.089   1.971  1.3013  2.5651  1.8403
  259PVA    H5443950   2.243   2.938   1.940  3.5372 -0.5045 -0.4727
  259PVA    C2843951   2.399   3.078   2.022  0.9698  0.4244 -0.5723
  259PVA    H5543952   2.448   2.986   1.989 -4.9229 -2.9871 -1.2315
  259PVA    H5643953   2.423   3.101   2.127 -0.7257  2.9519 -0.6338
  259PVA    C2943954   2.455   3.200   1.940  0.7526  0.1205  0.3604
  259PVA    H5743955   2.559   3.177   1.913 -0.0965 -2.4046 -1.0920
  259PVA    O1043956   2.380   3.224   1.817  0.7355 -0.3117 -0.6249
  259PVA    H5843957   2.456   3.216   1.757  3.0927  1.3946  1.8588
  259PVA    C3043958   2.453   3.334   2.013 -0.1884  0.9091 -0.9342
  259PVA    H5943959   2.352   3.345   2.054 -0.3900 -2.5157 -0.2333
  259PVA    H6043960   2.507   3.324   2.108 -2.2118  1.5795  0.3507
  259PVA    C3143961   2.511   3.451   1.935  0.3551 -0.7804  0.2441
  259PVA    H6143962   2.461   3.455   1.837 -1.2249 -2.9263  0.8814
  259PVA    H6243963   2.609   3.414   1.901  0.3906 -1.2192  0.8018
  259PVA    C3243964   2.503   3.599   1.986  0.0673  0.0451  0.1821
  259PVA    H6343965   2.515   3.607   2.095  1.3526  1.7827 -0.0454
  259PVA    O1143966   2.367   3.633   1.967  0.7572  0.7033  0.2609
  259PVA    H6443967   2.314   3.567   2.016  0.9737  0.6949  0.4791
  259PVA    C3343968   2.600   3.695   1.909 -0.3589 -1.2164  0.7806
  259PVA    H6543969   2.697   3.697   1.961 -1.1836 -0.7056  2.3686
  259PVA    H6643970   2.627   3.659   1.809  0.9154 -0.0243  0.6738
  259PVA    C3443971   2.531   3.833   1.876  0.1237  0.0480 -0.1060
  259PVA    H6743972   2.448   3.810   1.808  1.3796 -3.4223 -0.6862
  259PVA    H6843973   2.483   3.873   1.967 -3.1560 -0.2106 -1.5637
  259PVA    C3543974   2.615   3.941   1.801 -0.9477  0.5859 -0.5355
  259PVA    H6943975   2.715   3.898   1.793 -1.3218 -0.6837  1.0294
  259PVA    O1243976   2.639   4.059   1.878  0.5069 -1.3710 -0.4237
  259PVA    H7043977   2.735   4.069   1.890  0.1849  0.7456  0.9610
  259PVA    C3643978   2.569   3.955   1.656  1.0423 -0.9439 -0.8116
  259PVA    H7143979   2.654   3.985   1.594  2.0082  0.1098  0.9418
  259PVA    H7243980   2.537   3.862   1.606 -3.3671 -0.9872  1.6157
  259PVA    C3743981   2.447   4.045   1.640 -0.6200  0.9631  0.0359
  259PVA    H7343982   2.483   4.142   1.675 -1.4852  2.7948 -3.6533
  259PVA    H7443983   2.378   4.017   1.721  0.4177 -0.8332  0.3520
  259PVA    C3843984   2.401   4.061   1.497  0.2285  0.4200 -0.8570
  259PVA    H7543985   2.428   3.973   1.436  0.5008 -1.9066  2.3647
  259PVA    O1343986   2.468   4.177   1.450 -0.8881 -0.5438  0.6138
  259PVA    H7643987   2.408   4.216   1.385  0.6192  0.1789 -0.4083
  259PVA    C3943988   2.250   4.085   1.482  0.6274 -0.4284  0.8155
  259PVA    H7743989   2.203   3.987   1.471 -2.7315  1.2198 -1.2722
  259PVA    H7843990   2.241   4.121   1.379 -1.5516  4.0856  2.3245
  259PVA    C4043991   2.180   4.186   1.578 -0.5305 -0.4533 -0.4333
  259PVA    H7943992   2.218   4.170   1.680 -1.7988  1.9326  0.5029
  259PVA    H8043993   2.221   4.286   1.562 -0.5319 -0.7511 -2.7315
  259PVA    C4143994   2.034   4.192   1.564  0.6052 -0.0732 -0.2485
  259PVA    H8143995   1.988   4.211   1.467 -5.8264 -3.3518  1.6228
  259PVA    O1443996   1.982   4.079   1.626  0.9283 -0.2391  0.0498
  259PVA    H8243997   2.011   4.001   1.576 -2.0127 -1.7654  0.4974
  259PVA    C4243998   1.962   4.314   1.621  0.5097 -0.3168 -0.7528
  259PVA    H8343999   1.992   4.336   1.724 -4.9999  0.9839  0.9222
  259PVA    H8444000   1.987   4.398   1.554 -3.1568 -0.2864 -2.3105
  259PVA    C4344001   1.810   4.320   1.625 -0.2212 -0.9912 -1.3651
  259PVA    H8544002   1.763   4.250   1.694  1.0043 -2.1807 -1.6982
  259PVA    H8644003   1.781   4.301   1.521  2.1689  4.6862 -3.4751
  259PVA    C4444004   1.765   4.463   1.661 -0.2919  0.1197  0.1274
  259PVA    H8744005   1.825   4.535   1.605 -2.2411  4.5344  3.1113
  259PVA    O1544006   1.627   4.487   1.622 -0.2865  0.6063  0.4319
  259PVA    H8844007   1.593   4.403   1.657  4.7351 -0.9226  2.5526
  259PVA    C4544008   1.757   4.504   1.811  1.1530 -0.1092  0.7691
  259PVA    H8944009   1.861   4.493   1.845  1.0902  1.0821  1.3936
  259PVA    H9044010   1.741   4.612   1.817  3.0162  0.3531 -1.0934
  259PVA    C4644011   1.669   4.420   1.908 -0.5464 -0.1106 -0.0016
  259PVA    H9144012   1.682   4.311   1.898 -3.1945 -0.4125 -1.0099
  259PVA    H9244013   1.562   4.443   1.908 -0.1187  2.4150  2.0673
  259PVA    C4744014   1.709   4.460   2.063 -1.5531  0.1908  0.0139
  259PVA    H9344015   1.720   4.567   2.084  1.8825  0.0777 -0.6677
  259PVA    O1644016   1.845   4.429   2.099 -0.5723  0.9879 -0.2769
  259PVA    H9444017   1.864   4.465   2.187  0.0847  2.1795 -0.8797
  259PVA    C4844018   1.628   4.401   2.173  0.7202  0.7250 -0.3334
  259PVA    H9544019   1.663   4.427   2.273 -4.4136  0.0821  1.9660
  259PVA    H9644020   1.531   4.453   2.178 -0.2245 -1.0725  3.1628
  259PVA    C4944021   1.581   4.247   2.173 -0.7346  0.3791  0.1783
  259PVA    H9744022   1.556   4.219   2.070 -1.0310 -0.6406  0.5054
  259PVA    H9844023   1.490   4.223   2.230 -3.2452  3.5901 -2.0988
  259PVA    C5044024   1.700   4.145   2.204  0.3691  0.3815  0.5984
  259PVA    H9944025   1.749   4.194   2.290 -0.8060 -0.1059  1.5755
  259PVA    O1744026   1.809   4.154   2.112  0.7310  0.7478  0.6476
  259PVA   H10044027   1.825   4.250   2.111  2.1453  0.5253  0.1542
  259PVA    C5144028   1.653   3.995   2.236 -0.4506 -0.7388 -0.9113
  259PVA   H10144029   1.584   3.982   2.151 -3.6088  2.9724  0.7199
  259PVA   H10244030   1.589   3.995   2.326 -1.1438  1.5002 -1.3224
  260PVA     C144031   6.849   4.567   0.763 -0.3279  1.1619  0.2855
  260PVA     H144032   6.790   4.646   0.811 -0.6832 -1.0137  3.7331
  260PVA     H244033   6.791   4.503   0.695  1.0684 -0.3410  0.4518
  260PVA     C244034   6.901   4.467   0.871  0.7683 -0.7482  1.2666
  260PVA     H344035   6.821   4.394   0.889 -0.7562  1.0378  1.9958
  260PVA     O144036   7.029   4.411   0.846  0.1454  0.0630  0.0127
  260PVA     H444037   7.029   4.315   0.827 -1.6004 -0.9391  4.0708
  260PVA     C344038   6.895   4.538   1.007  0.4223  0.1580  0.7058
  260PVA     H544039   6.910   4.644   0.986 -1.0731 -0.1452 -2.4514
  260PVA     H644040   6.985   4.507   1.062 -0.9000  2.4685  4.5325
  260PVA     C444041   6.765   4.526   1.093  0.7009 -0.5097 -0.4559
  260PVA     H744042   6.673   4.562   1.045 -0.2389  0.2471  1.7809
  260PVA     H844043   6.761   4.416   1.089  0.9676 -0.5237 -0.3212
  260PVA     C544044   6.773   4.570   1.237 -0.6553  1.0582 -0.1277
  260PVA     H944045   6.774   4.679   1.237  2.9866  1.2876 -3.5350
  260PVA     O244046   6.901   4.520   1.296  0.6596 -1.0051 -0.4988
  260PVA    H1044047   6.970   4.588   1.293  0.7385 -0.4597  4.7337
  260PVA     C644048   6.655   4.516   1.319 -0.4870 -0.4337  1.2571
  260PVA    H1144049   6.659   4.406   1.316  0.2154 -0.4038 -1.5916
  260PVA    H1244050   6.562   4.551   1.271  0.5185 -0.5568 -0.9176
  260PVA     C744051   6.672   4.545   1.478 -0.5302  0.7609 -0.7570
  260PVA    H1344052   6.761   4.505   1.528 -0.3584  0.3177 -1.4196
  260PVA    H1444053   6.677   4.655   1.484  5.0362  0.6898  1.9172
  260PVA     C844054   6.569   4.488   1.575 -1.5227 -0.7277  1.5307
  260PVA    H1544055   6.593   4.382   1.587 -2.0802 -1.6039 -3.2486
  260PVA     O344056   6.580   4.566   1.699 -0.3973  0.5987  0.8642
  260PVA    H1644057   6.674   4.592   1.699 -0.4789  2.2031 -4.4865
  260PVA     C944058   6.419   4.500   1.530  0.2546  0.7805 -0.8982
  260PVA    H1744059   6.400   4.566   1.444  1.5623  3.4727  0.7634
  260PVA    H1844060   6.365   4.530   1.620 -3.0770 -0.3490 -2.3413
  260PVA    C1044061   6.367   4.368   1.473  0.1760  0.3336  1.2429
  260PVA    H1944062   6.413   4.346   1.376 -1.1946  5.8250 -0.9931
  260PVA    H2044063   6.379   4.293   1.552  0.0123 -2.0370 -0.8376
  260PVA    C1144064   6.210   4.363   1.445 -0.8792 -0.6049  0.1679
  260PVA    H2144065   6.165   4.449   1.494 -2.2895 -1.1570 -0.1118
  260PVA     O444066   6.202   4.386   1.298  0.4192  1.1063 -0.3464
  260PVA    H2244067   6.148   4.309   1.272 -3.6102  4.0679 -1.6049
  260PVA    C1244068   6.136   4.231   1.491 -0.4069  0.0199  1.0156
  260PVA    H2344069   6.162   4.153   1.417 -2.5461 -2.3159  2.5471
  260PVA    H2444070   6.176   4.215   1.592 -1.0545  1.9668  1.6165
  260PVA    C1344071   5.983   4.248   1.509  1.4073 -0.5555 -0.2773
  260PVA    H2544072   5.946   4.228   1.408 -0.5095 -1.3541  0.5322
  260PVA    H2644073   5.958   4.347   1.550 -1.0772 -0.4767 -1.7942
  260PVA    C1444074   5.900   4.138   1.591 -1.2276 -0.3483 -0.4307
  260PVA    H2744075   5.920   4.032   1.572 -3.6416 -1.5772  2.8470
  260PVA     O544076   5.768   4.136   1.545 -0.9647 -0.4759 -0.6117
  260PVA    H2844077   5.710   4.125   1.622  2.3557  1.9688  2.6389
  260PVA    C1544078   5.878   4.176   1.741  1.4355 -0.3281 -0.8677
  260PVA    H2944079   5.808   4.260   1.753  2.2769  0.4768 -1.4435
  260PVA    H3044080   5.972   4.215   1.783  0.6962 -0.7579  1.3083
  260PVA    C1644081   5.821   4.061   1.841  0.4401 -0.1489 -0.6807
  260PVA    H3144082   5.803   3.965   1.791  1.8874  0.2395 -2.0344
  260PVA    H3244083   5.888   4.039   1.925  0.6193 -2.3133 -1.3394
  260PVA    C1744084   5.686   4.100   1.898  0.5468  1.9169  0.5639
  260PVA    H3344085   5.707   4.199   1.941  3.8334  0.7750  1.9758
  260PVA     O644086   5.588   4.122   1.793  0.0867 -0.4457 -0.0345
  260PVA    H3444087   5.503   4.110   1.838 -0.3641 -0.5708 -0.9058
  260PVA    C1844088   5.647   4.016   2.015 -1.1362 -0.2190  0.5562
  260PVA    H3544089   5.694   3.917   2.009  2.0271  1.2512 -1.5308
  260PVA    H3644090   5.705   4.060   2.097  1.4489  1.0238 -1.7748
  260PVA    C1944091   5.501   4.035   2.058  0.7620  0.3329  1.4546
  260PVA    H3744092   5.493   4.132   2.109  0.5447 -0.3015  2.6677
  260PVA    H3844093   5.434   4.052   1.973 -1.6826  0.8871  3.3616
  260PVA    C2044094   5.429   3.946   2.152  0.1472  0.5698  0.9358
  260PVA    H3944095   5.491   3.921   2.239  1.9404 -0.4108 -0.5622
  260PVA     O744096   5.403   3.829   2.080 -0.4188 -0.1475  0.8432
  260PVA    H4044097   5.350   3.860   2.005  6.5656 -0.3260 -5.2661
  260PVA    C2144098   5.307   3.990   2.228 -0.6064  0.1234 -0.4364
  260PVA    H4144099   5.347   4.041   2.317 -0.3814  5.1738 -3.0816
  260PVA    H4244100   5.248   3.907   2.268 -5.1136  1.0793 -4.2328
  260PVA    C2244101   5.218   4.078   2.153  0.2149 -0.1953 -0.0537
  260PVA    H4344102   5.255   4.175   2.118  1.2936 -0.2990  0.7347
  260PVA    H4444103   5.203   4.034   2.054 -0.8697 -3.2767  1.3601
  260PVA    C2344104   5.077   4.090   2.221 -0.9600  0.3869  0.4559
  260PVA    H4544105   5.044   3.986   2.211  2.5736 -1.2651  3.4517
  260PVA     O844106   5.094   4.120   2.355  0.5436 -0.2519 -0.6292
  260PVA    H4644107   5.168   4.183   2.350  2.1253 -1.5173  2.9370
  260PVA    C2444108   4.976   4.183   2.150  0.4551 -0.4573  0.7767
  260PVA    H4744109   4.951   4.141   2.052 -2.2026  1.0487  0.7044
  260PVA    H4844110   5.022   4.282   2.138 -2.2588  1.0706  2.1077
  260PVA    C2544111   4.848   4.186   2.230 -0.4903 -0.6886  0.6639
  260PVA    H4944112   4.867   4.190   2.338 -1.4361 -0.4671  0.8303
  260PVA    H5044113   4.801   4.088   2.226 -1.0440 -0.3885 -0.5292
  260PVA    C2644114   4.754   4.296   2.184 -0.1458 -0.1029  0.1245
  260PVA    H5144115   4.812   4.380   2.143  1.3793 -0.2148  1.9047
  260PVA     O944116   4.682   4.353   2.292  0.3632 -0.0461  0.3055
  260PVA    H5244117   4.601   4.302   2.309 -0.6343  0.8150 -1.5781
  260PVA    C2744118   4.676   4.247   2.054 -0.8319  0.9480  3.2980
  260PVA    H5344119   4.649   4.141   2.050  0.0432  0.6973 -0.9192
  260PVA    H5444120   4.752   4.257   1.976 -0.2889 -1.7856  3.3707
  260PVA    C2844121   4.564   4.338   2.015  1.7146 -1.0184 -1.3980
  260PVA    H5544122   4.494   4.361   2.095  1.1263  5.1964 -3.1945
  260PVA    H5644123   4.597   4.434   1.973  4.9202 -1.3069  0.1689
  260PVA    C2944124   4.472   4.272   1.913  0.7334 -0.4745 -0.0383
  260PVA    H5744125   4.441   4.183   1.970 -2.7855 -0.6846 -1.9830
  260PVA    O1044126   4.549   4.229   1.803  0.5036 -0.1917 -0.5780
  260PVA    H5844127   4.639   4.248   1.836 -1.6071  2.0433  5.2240
  260PVA    C3044128   4.345   4.339   1.888  0.3555  0.0175 -0.3646
  260PVA    H5944129   4.356   4.427   1.823  3.1254  1.1862  1.5194
  260PVA    H6044130   4.295   4.396   1.968  0.4142 -0.3116 -0.0894
  260PVA    C3144131   4.218   4.247   1.855  0.4541 -0.2625  0.3030
  260PVA    H6144132   4.198   4.177   1.937 -0.5256 -0.4984 -0.1154
  260PVA    H6244133   4.235   4.183   1.767 -1.2920  1.5089 -1.4252
  260PVA    C3244134   4.080   4.331   1.842  0.5863  0.6928  0.2713
  260PVA    H6344135   4.060   4.379   1.939  1.5188  1.0599  0.2936
  260PVA    O1144136   4.088   4.417   1.743  0.1051 -0.5822  1.0165
  260PVA    H6444137   4.185   4.420   1.748  0.5298 -2.9735 -2.2525
  260PVA    C3344138   3.980   4.231   1.787  0.5969  0.2863  0.8902
  260PVA    H6544139   3.996   4.140   1.845 -1.5489 -2.0090 -1.8317
  260PVA    H6644140   4.002   4.200   1.685 -1.6373 -3.4048  1.3451
  260PVA    C3444141   3.825   4.264   1.795  0.8606  0.5002 -0.4211
  260PVA    H6744142   3.779   4.320   1.712 -1.6751 -2.0007 -0.8439
  260PVA    H6844143   3.800   4.309   1.892  1.0532  1.5554 -0.8488
  260PVA    C3544144   3.746   4.124   1.792  0.3862  0.4334 -0.1310
  260PVA    H6944145   3.794   4.072   1.875  1.3085  0.9782 -0.3027
  260PVA    O1244146   3.757   4.080   1.656 -0.4778  0.4020 -0.9045
  260PVA    H7044147   3.713   3.994   1.665 -0.3426  0.5154  5.0361
  260PVA    C3644148   3.591   4.127   1.804  0.2091  0.6387  1.0444
  260PVA    H7144149   3.542   4.212   1.755  0.7471  3.1751  4.5011
  260PVA    H7244150   3.565   4.024   1.778 -0.2487  0.8794  0.5267
  260PVA    C3744151   3.543   4.155   1.953 -0.7401  0.0168  0.8721
  260PVA    H7344152   3.434   4.156   1.955 -0.7560  0.0561  3.5625
  260PVA    H7444153   3.565   4.261   1.968  1.7760 -0.6296  2.3723
  260PVA    C3844154   3.597   4.074   2.076  0.8799  0.4893 -1.1928
  260PVA    H7544155   3.603   3.974   2.031  0.2813  0.8480 -2.0931
  260PVA    O1344156   3.728   4.121   2.108  0.2433 -0.5354 -0.1100
  260PVA    H7644157   3.738   4.134   2.204 -0.5787  0.2821 -0.1198
  260PVA    C3944158   3.526   4.084   2.230 -0.9113  0.5911 -1.3305
  260PVA    H7744159   3.530   4.189   2.263  1.5410  0.2825 -0.4508
  260PVA    H7844160   3.574   4.017   2.302  0.6942  3.2029  0.1825
  260PVA    C4044161   3.377   4.064   2.209  0.6040  0.9447 -0.7225
  260PVA    H7944162   3.346   3.966   2.170  1.9527 -1.5595  3.7522
  260PVA    H8044163   3.329   4.143   2.150  3.5749  2.8863 -0.7436
  260PVA    C4144164   3.295   4.067   2.348 -0.0084  0.6632  0.4235
  260PVA    H8144165   3.318   4.158   2.404 -0.0235 -1.5621  4.3954
  260PVA    O1444166   3.341   3.954   2.425  0.7457  0.8428 -0.0573
  260PVA    H8244167   3.438   3.957   2.425  0.8899 -1.8507 -0.2021
  260PVA    C4244168   3.141   4.067   2.317  0.8004  0.6290 -1.2202
  260PVA    H8344169   3.136   4.127   2.225  3.7226  3.0720  0.0063
  260PVA    H8444170   3.081   4.121   2.392 -5.2733 -4.2494 -1.7935
  260PVA    C4344171   3.066   3.929   2.318 -0.3008 -0.8875 -0.3974
  260PVA    H8544172   3.078   3.879   2.415 -2.3251  2.3011  1.7072
  260PVA    H8644173   3.100   3.866   2.234  0.9479  1.1165 -1.4684
  260PVA    C4444174   2.912   3.947   2.312 -0.2435 -0.2708  1.0112
  260PVA    H8744175   2.890   3.988   2.412  0.7657 -2.9696  2.4274
  260PVA    O1544176   2.886   4.051   2.218  0.4247  0.1198  0.2883
  260PVA    H8844177   2.789   4.041   2.211  0.4637 -0.6973  0.8196
  260PVA    C4544178   2.827   3.829   2.280 -0.1150  0.8149  0.3642
  260PVA    H8944179   2.885   3.749   2.329 -0.9402  1.9227  3.3677
  260PVA    H9044180   2.829   3.803   2.173 -4.3437 -0.7120  0.4892
  260PVA    C4644181   2.692   3.831   2.349  0.1122  0.4018  1.0418
  260PVA    H9144182   2.687   3.725   2.319  1.7534  0.8185 -0.9455
  260PVA    H9244183   2.684   3.821   2.458 -0.8411  0.8113  1.0196
  260PVA    C4744184   2.578   3.888   2.260  0.8833 -0.1090 -1.3514
  260PVA    H9344185   2.579   3.835   2.164  3.9188 -0.6463 -1.1225
  260PVA    O1644186   2.626   4.019   2.238 -0.0811 -0.6429  0.1101
  260PVA    H9444187   2.596   4.039   2.148 -0.2033 -2.0028 -0.1765
  260PVA    C4844188   2.441   3.884   2.327  0.8509 -0.5937 -0.5472
  260PVA    H9544189   2.412   3.779   2.333  1.6443 -0.7875  0.0784
  260PVA    H9644190   2.439   3.918   2.431  1.1135 -1.1307 -0.3671
  260PVA    C4944191   2.332   3.971   2.256 -0.4569  0.3961  0.3605
  260PVA    H9744192   2.280   3.930   2.168 -1.9841  2.1105  0.4009
  260PVA    H9844193   2.366   4.073   2.233  0.4219  0.9215  3.4721
  260PVA    C5044194   2.198   3.977   2.346  0.5925  0.5340  0.4557
  260PVA    H9944195   2.226   3.990   2.451  0.0155  2.0962  0.4484
  260PVA    O1744196   2.142   4.102   2.290 -0.8197  0.5935 -0.3331
  260PVA   H10044197   2.100   4.066   2.210 -0.4560 -1.7258  0.4423
  260PVA    C5144198   2.114   3.843   2.347  0.6201  0.3340  0.0889
  260PVA   H10144199   2.178   3.779   2.409  0.9888  1.7010  1.1592
  260PVA   H10244200   2.108   3.815   2.241 -1.3193  1.1895 -0.0760
  261PVA     C144201   7.181   4.937   0.783  0.3659  0.3200 -0.0607
  261PVA     H144202   7.123   5.027   0.808  1.1504  1.2382 -1.4459
  261PVA     H244203   7.202   4.894   0.882 -0.7962  0.5392  0.3100
  261PVA     C244204   7.313   5.020   0.767 -0.4720 -0.7564 -0.0383
  261PVA     H344205   7.289   5.074   0.674  3.1947 -0.5156 -1.0028
  261PVA     O144206   7.418   4.939   0.712  0.0235 -0.5527  0.1356
  261PVA     H444207   7.509   4.972   0.710 -0.3532  1.1433  3.5902
  261PVA     C344208   7.361   5.101   0.894  0.7052  0.1275  0.5830
  261PVA     H544209   7.277   5.160   0.933  0.0422 -1.0954  1.0603
  261PVA     H644210   7.435   5.172   0.855  0.2727  0.3490  0.1704
  261PVA     C444211   7.413   5.003   0.996 -0.5703  0.2837  0.1971
  261PVA     H744212   7.325   4.958   1.043  0.7052  0.6631  3.1819
  261PVA     H844213   7.468   4.917   0.956 -2.1302 -1.2336  1.1780
  261PVA     C544214   7.496   5.065   1.093 -0.7046 -1.0815 -0.5608
  261PVA     H944215   7.428   5.119   1.160 -0.6931  0.6249 -1.8542
  261PVA     O244216   7.598   5.152   1.042 -0.1545  0.4237  0.2387
  261PVA    H1044217   7.605   5.239   1.087  0.4984  1.0262 -0.9727
  261PVA     C644218   7.559   4.963   1.192  1.1851  0.0307  0.1369
  261PVA    H1144219   7.476   4.891   1.186  2.8364 -1.9536 -0.0527
  261PVA    H1244220   7.646   4.911   1.149  2.3256  2.3348 -0.4940
  261PVA     C744221   7.575   5.016   1.334 -0.3246 -0.0473 -1.3633
  261PVA    H1344222   7.502   5.097   1.342  1.1704  1.5992 -3.4314
  261PVA    H1444223   7.676   5.058   1.343  0.0490 -1.1654  0.2611
  261PVA     C844224   7.556   4.908   1.458 -0.7542  0.2294 -0.1704
  261PVA    H1544225   7.631   4.828   1.470 -2.7815 -1.3549  4.2326
  261PVA     O344226   7.432   4.847   1.448  0.7020 -0.7484 -0.4351
  261PVA    H1644227   7.362   4.915   1.442  1.9190  0.5206 -0.7839
  261PVA     C944228   7.558   4.981   1.592 -0.0761 -0.1287  0.5067
  261PVA    H1744229   7.478   5.054   1.571  0.5832  0.4656  0.0065
  261PVA    H1844230   7.647   5.042   1.611 -0.9718  1.5443 -0.4426
  261PVA    C1044231   7.531   4.878   1.707 -0.9104  0.1512  0.6804
  261PVA    H1944232   7.624   4.819   1.709  0.8565  2.6020 -1.4881
  261PVA    H2044233   7.442   4.816   1.695  1.0556 -3.9124  4.3593
  261PVA    C1144234   7.527   4.936   1.838 -0.4033  0.6085 -0.3166
  261PVA    H2144235   7.612   5.005   1.836 -1.8049  2.5666 -4.5224
  261PVA     O444236   7.402   5.011   1.860  0.1714  0.1351 -0.0660
  261PVA    H2244237   7.417   5.096   1.816 -5.9875  0.8311 -1.8665
  261PVA    C1244238   7.560   4.838   1.951  1.0307  0.2153 -1.0890
  261PVA    H2344239   7.466   4.784   1.964  1.3346  0.0024  0.5407
  261PVA    H2444240   7.648   4.776   1.928  0.3103 -2.1362  1.8496
  261PVA    C1344241   7.591   4.889   2.092  0.2506  0.3265 -0.3921
  261PVA    H2544242   7.506   4.940   2.138  0.3126  3.3219 -3.2224
  261PVA    H2644243   7.658   4.975   2.075  2.5740 -1.7208 -2.5719
  261PVA    C1444244   7.658   4.795   2.192  0.3409 -0.1194 -0.0204
  261PVA    H2744245   7.761   4.773   2.161 -0.2869 -2.9533 -0.4334
  261PVA     O544246   7.594   4.669   2.197  0.1160 -0.8915 -0.1165
  261PVA    H2844247   7.521   4.691   2.257  0.1860  1.1162 -0.6809
  261PVA    C1544248   7.679   4.852   2.343 -0.2655  0.2064 -0.0447
  261PVA    H2944249   7.722   4.785   2.418  2.0439  1.1096 -0.4775
  261PVA    H3044250   7.580   4.882   2.381  1.4979  2.0156  3.6914
  261PVA    C1644251   7.760   4.981   2.359 -0.6855  0.3856  1.2218
  261PVA    H3144252   7.728   5.062   2.292 -0.2927  0.1722  0.7735
  261PVA    H3244253   7.760   5.004   2.467 -6.4614 -0.1039  1.6579
  261PVA    C1744254   0.146   4.943   2.344 -0.0563  0.0008 -0.8449
  261PVA    H3344255   0.157   4.919   2.238  0.5789  2.1366 -1.3116
  261PVA     O644256   0.183   4.842   2.424 -0.1694 -0.8265  0.2610
  261PVA    H3444257   0.141   4.755   2.410  0.6126 -1.2616  0.5124
  261PVA    C1844258   0.244   5.057   2.388 -1.0191 -1.1722 -0.2589
  261PVA    H3544259   0.213   5.146   2.331  1.4456 -0.3978 -0.5078
  261PVA    H3644260   0.227   5.084   2.493  1.9908  1.6267 -0.3141
  261PVA    C1944261   0.393   5.027   2.348  0.5049 -0.1294  0.1650
  261PVA    H3744262   0.400   4.950   2.424 -0.6571  2.3868  3.0396
  261PVA    H3844263   0.443   5.121   2.376  0.5539 -0.0050 -0.3187
  261PVA    C2044264   0.421   4.978   2.208 -0.1205 -0.5771  0.2501
  261PVA    H3944265   0.328   4.979   2.150 -0.7409 -6.6605  0.4411
  261PVA     O744266   0.452   4.840   2.200  0.3573 -0.6894 -0.7765
  261PVA    H4044267   0.367   4.794   2.186  0.0436  0.1404 -1.7095
  261PVA    C2144268   0.543   5.052   2.146 -0.3264 -0.1713 -0.2830
  261PVA    H4144269   0.535   5.161   2.153 -1.2220 -0.2762  0.6872
  261PVA    H4244270   0.530   5.032   2.039  2.7510 -2.4250 -0.3909
  261PVA    C2244271   0.686   5.035   2.203  0.1529  0.2531 -0.8817
  261PVA    H4344272   0.689   5.059   2.310  0.5841 -5.1894  0.6312
  261PVA    H4444273   0.709   4.927   2.201  2.5457  0.6734 -4.7087
  261PVA    C2344274   0.801   5.103   2.125 -0.5838  0.1089  1.0540
  261PVA    H4544275   0.797   5.081   2.018 -0.8903 -0.4367  1.1736
  261PVA     O844276   0.780   5.241   2.130  0.2239 -0.9223 -0.7678
  261PVA    H4644277   0.833   5.280   2.059  0.3921 -0.3601 -0.3366
  261PVA    C2444278   0.951   5.066   2.154  0.7382 -1.0493  0.4066
  261PVA    H4744279   0.982   5.136   2.232 -3.5668  0.9216  0.6414
  261PVA    H4844280   0.956   4.965   2.197 -0.5336  0.0701  3.5015
  261PVA    C2544281   1.055   5.081   2.033 -1.0093 -0.0334 -0.9899
  261PVA    H4944282   1.152   5.038   2.063 -1.5984  0.7748  2.4023
  261PVA    H5044283   1.019   5.036   1.939 -0.8739 -0.3419 -0.8982
  261PVA    C2644284   1.100   5.229   2.002 -0.2769  0.2710  0.3211
  261PVA    H5144285   1.142   5.272   2.093  3.2365  4.9644 -3.0373
  261PVA     O944286   0.987   5.307   1.939 -0.5496 -0.5064 -0.3837
  261PVA    H5244287   1.013   5.397   1.965 -0.7593 -1.2053  2.5840
  261PVA    C2744288   1.225   5.222   1.903  1.2929 -0.8326  0.6131
  261PVA    H5344289   1.194   5.198   1.800 -0.3500 -0.4444  0.9918
  261PVA    H5444290   1.312   5.167   1.941  1.9239 -2.3781 -2.6430
  261PVA    C2844291   1.281   5.366   1.874  0.3207  0.9944  0.6121
  261PVA    H5544292   1.357   5.358   1.795 -0.8078  5.1300 -1.1294
  261PVA    H5644293   1.200   5.424   1.828  0.0207  1.7533  2.0475
  261PVA    C2944294   1.347   5.441   1.994  0.1796 -0.1935 -1.3502
  261PVA    H5744295   1.371   5.542   1.958  0.3481 -0.7166 -2.7866
  261PVA    O1044296   1.250   5.472   2.098  0.1684  0.5301 -0.9811
  261PVA    H5844297   1.290   5.527   2.168  0.1552  0.0597 -0.6029
  261PVA    C3044298   1.471   5.371   2.035 -0.1550 -1.4820 -0.2480
  261PVA    H5944299   1.444   5.272   2.075 -1.9717 -1.9037 -2.3255
  261PVA    H6044300   1.529   5.340   1.948  0.5246 -0.5379 -0.1449
  261PVA    C3144301   1.555   5.460   2.133 -0.2522 -0.3208  0.6014
  261PVA    H6144302   1.483   5.529   2.178  0.8792  2.2757 -1.3302
  261PVA    H6244303   1.628   5.526   2.084 -0.7772 -0.9416 -1.1104
  261PVA    C3244304   1.639   5.395   2.253 -0.3111  0.1865  0.0871
  261PVA    H6344305   1.571   5.351   2.327 -1.4016  2.1554  0.3330
  261PVA    O1144306   1.740   5.312   2.203 -0.4151  0.1572  0.7892
  261PVA    H6444307   1.728   5.223   2.241  2.8526 -0.4127  0.7960
  261PVA    C3344308   1.713   5.506   2.343 -0.2229  0.1933 -0.3105
  261PVA    H6544309   1.636   5.578   2.373  0.5933  0.6785  0.6815
  261PVA    H6644310   1.787   5.562   2.284 -1.9239  3.7346  0.6869
  261PVA    C3444311   1.762   5.446   2.471  0.1713 -0.1197 -0.7478
  261PVA    H6744312   1.684   5.394   2.527  0.1126  0.0322 -0.6893
  261PVA    H6844313   1.832   5.368   2.437 -0.7667 -1.7346  0.8809
  261PVA    C3544314   1.821   5.548   2.568 -0.1194 -0.4026 -0.3949
  261PVA    H6944315   1.872   5.633   2.522 -3.1719  0.8053 -1.7760
  261PVA    O1244316   1.710   5.622   2.615  0.1060  0.0542  0.2212
  261PVA    H7044317   1.720   5.651   2.707  1.1417 -1.0389  0.4682
  261PVA    C3644318   1.896   5.481   2.690 -0.1010 -0.7019  1.1201
  261PVA    H7144319   1.846   5.466   2.786 -1.5801  2.7737  1.0576
  261PVA    H7244320   1.903   5.374   2.665  2.0048  0.0443 -2.2596
  261PVA    C3744321   2.051   5.511   2.691 -0.2629 -1.6533  0.9961
  261PVA    H7344322   2.107   5.440   2.629  3.1475  0.3405  1.5235
  261PVA    H7444323   2.069   5.615   2.661  1.6732 -1.4085  2.7886
  261PVA    C3844324   2.100   5.517   2.836 -1.5860  0.0142  0.4200
  261PVA    H7544325   2.052   5.584   2.909 -0.2623  2.3548 -0.7294
  261PVA    O1344326   2.087   5.387   2.880 -0.0911 -0.0970  0.0938
  261PVA    H7644327   2.150   5.319   2.850 -1.3690 -2.1952  1.8534
  261PVA    C3944328   2.259   5.563   2.851 -0.5227  1.9041 -0.0433
  261PVA    H7744329   2.269   5.672   2.856  0.6008  1.8320 -0.4201
  261PVA    H7844330   2.317   5.536   2.762 -1.2662 -1.1439  0.2548
  261PVA    C4044331   2.330   5.498   2.973  0.4083 -0.2676  0.6328
  261PVA    H7944332   2.286   5.533   3.067 -0.2929  0.3934  0.0787
  261PVA    H8044333   2.319   5.389   2.976  0.9040 -0.3474 -0.0980
  261PVA    C4144334   2.478   5.502   2.979  0.4133 -0.1450  0.9724
  261PVA    H8144335   2.507   5.605   3.003 -0.4821  0.4535 -0.3906
  261PVA    O1444336   2.534   5.433   2.864  1.1360 -0.0438  1.0215
  261PVA    H8244337   2.562   5.497   2.797 -0.5253  3.6528  3.5793
  261PVA    C4244338   2.534   5.441   3.115  0.1482  0.5085  0.5817
  261PVA    H8344339   2.527   5.332   3.113  1.1434  0.4196  0.9927
  261PVA    H8444340   2.644   5.451   3.118  0.4610 -2.3876  1.7793
  261PVA    C4344341   2.499   5.510   3.254 -0.2761  0.4966 -1.1143
  261PVA    H8544342   2.426   5.445   3.303 -2.4619  3.1108 -0.6676
  261PVA    H8644343   2.454   5.610   3.248 -0.7720  0.4869  1.4120
  261PVA    C4444344   2.611   5.532   3.351 -1.3453  0.3470 -0.1077
  261PVA    H8744345   2.694   5.594   3.316 -0.9916  0.6213  1.1763
  261PVA    O1544346   2.654   5.399   3.395 -0.0847 -0.8557  0.2554
  261PVA    H8844347   2.593   5.333   3.358  0.3690 -0.3083 -1.5866
  261PVA    C4544348   2.573   5.595   3.485  0.3765  0.0785 -0.4325
  261PVA    H8944349   2.569   5.702   3.462  1.2854 -0.0152 -1.1095
  261PVA    H9044350   2.476   5.547   3.504 -1.8105  3.2715 -2.5845
  261PVA    C4644351   2.676   5.594   3.604  0.4907  0.2637  0.1928
  261PVA    H9144352   2.625   5.626   3.696 -0.0568 -0.7747  0.2629
  261PVA    H9244353   2.690   5.487   3.624  3.0196  0.6068  0.5969
  261PVA    C4744354   2.808   5.682   3.589  0.5606  0.0188  0.7313
  261PVA    H9344355   2.849   5.664   3.489 -3.9504  0.0884 -1.3759
  261PVA    O1644356   2.911   5.646   3.681 -0.4872 -1.0481 -0.5178
  261PVA    H9444357   2.982   5.711   3.665  0.0591 -2.0511 -2.5442
  261PVA    C4844358   2.795   5.836   3.597  1.3699 -1.3446 -1.2700
  261PVA    H9544359   2.689   5.864   3.596  1.2745 -1.6365 -0.2446
  261PVA    H9644360   2.818   5.873   3.697 -1.1594  3.0561 -2.0491
  261PVA    C4944361   2.868   5.921   3.491  0.1184 -0.1051 -0.5838
  261PVA    H9744362   2.844   5.879   3.392  0.2173  1.2737 -1.2102
  261PVA    H9844363   2.977   5.914   3.501  0.2274  0.6882 -1.1890
  261PVA    C5044364   2.827   6.068   3.509  0.1749 -0.2380  0.2890
  261PVA    H9944365   2.719   6.053   3.504  0.2048 -0.5134  0.4800
  261PVA    O1744366   2.881   6.128   3.630  0.4271  0.4193 -0.6118
  261PVA   H10044367   2.799   6.139   3.682  2.7107  3.6026  2.8455
  261PVA    C5144368   2.861   6.169   3.393  0.8828 -0.4016 -0.9688
  261PVA   H10144369   2.947   6.236   3.404  0.7366  0.2217 -3.1308
  261PVA   H10244370   2.872   6.121   3.294 -2.3856  1.5020 -2.4312
  262PVA     C144371   1.238   3.403   2.119 -0.0763  0.6990  0.2449
  262PVA     H144372   1.215   3.361   2.218  2.1846  2.0763  1.4486
  262PVA     H244373   1.143   3.417   2.065 -0.3024 -2.9154 -0.5295
  262PVA     C244374   1.265   3.554   2.140 -0.2154  0.5939 -0.7535
  262PVA     H344375   1.209   3.629   2.084  0.2490  1.8131  0.3706
  262PVA     O144376   1.382   3.583   2.075 -0.0921  0.2522 -0.0267
  262PVA     H444377   1.432   3.500   2.080 -1.8884 -1.0901 -2.3588
  262PVA     C344378   1.281   3.620   2.283 -0.5348 -0.2442 -1.1204
  262PVA     H544379   1.324   3.544   2.349 -2.2215 -2.1915 -2.1498
  262PVA     H644380   1.181   3.636   2.325  0.1535  3.2304 -0.4651
  262PVA     C444381   1.339   3.765   2.298 -0.9168 -0.3918  0.2115
  262PVA     H744382   1.273   3.825   2.234 -2.6684 -2.2808  0.1327
  262PVA     H844383   1.444   3.777   2.269 -0.6984  0.5981  1.3199
  262PVA     C544384   1.336   3.830   2.434  0.5752  0.3569 -1.1687
  262PVA     H944385   1.238   3.817   2.482  1.5271 -2.9844  0.1761
  262PVA     O244386   1.356   3.968   2.413  0.6719 -1.0115 -0.5644
  262PVA    H1044387   1.453   3.970   2.420  0.7366 -2.1295 -0.9787
  262PVA     C644388   1.441   3.773   2.527  0.3151 -0.4830 -0.8721
  262PVA    H1144389   1.408   3.670   2.544 -2.1207  0.3440 -0.0401
  262PVA    H1244390   1.544   3.785   2.493  0.3694 -1.6953 -1.1695
  262PVA     C744391   1.424   3.838   2.670 -0.3123  1.2061 -0.2873
  262PVA    H1344392   1.491   3.922   2.693  0.6237  0.2454  0.6120
  262PVA    H1444393   1.448   3.752   2.733 -1.4338  0.1890 -1.1895
  262PVA     C844394   1.284   3.881   2.706  0.5391  0.6506 -0.0132
  262PVA    H1544395   1.239   3.945   2.629  1.0872 -0.1679 -1.0309
  262PVA     O344396   1.209   3.757   2.731 -0.0031 -0.1288 -0.5937
  262PVA    H1644397   1.118   3.790   2.735  0.6527  1.8250  2.7427
  262PVA     C944398   1.272   3.985   2.812  0.3262  0.4662 -0.5764
  262PVA    H1744399   1.342   4.064   2.785 -1.6616  1.9453 -1.6969
  262PVA    H1844400   1.317   3.945   2.904 -3.0726  0.8189  1.4234
  262PVA    C1044401   1.131   4.057   2.839 -0.9293  0.1876 -0.3339
  262PVA    H1944402   1.114   4.118   2.750  5.0937  0.0664 -1.9554
  262PVA    H2044403   1.049   3.984   2.838  0.5498 -1.5359 -0.5768
  262PVA    C1144404   1.145   4.129   2.974  0.2753 -0.1843  0.8711
  262PVA    H2144405   1.251   4.142   2.999  0.5972 -2.3152  0.8264
  262PVA     O444406   1.066   4.249   2.963  0.4148  0.8406 -0.1995
  262PVA    H2244407   0.972   4.223   2.966  0.3085  1.1139  3.1898
  262PVA    C1244408   1.086   4.046   3.084 -0.7449  0.2892  0.1175
  262PVA    H2344409   0.987   4.013   3.048 -0.8600 -1.5973  1.9634
  262PVA    H2444410   1.131   3.947   3.068  0.6411  1.4205 -4.4676
  262PVA    C1344411   1.105   4.105   3.225 -0.3821 -0.6364 -0.4567
  262PVA    H2544412   1.054   4.202   3.229  1.6614  0.5646 -1.6775
  262PVA    H2644413   1.210   4.112   3.257 -1.2141 -1.4245  2.9441
  262PVA    C1444414   1.031   4.035   3.346  0.8833  1.0203  1.0463
  262PVA    H2744415   1.037   4.103   3.432 -1.5490  2.0611  0.4906
  262PVA     O544416   1.094   3.901   3.368 -0.3972  1.2911 -0.1828
  262PVA    H2844417   1.026   3.832   3.363  2.5531 -1.9844  1.1312
  262PVA    C1544418   0.872   4.012   3.320  0.8752 -0.1214 -0.4371
  262PVA    H2944419   0.840   3.926   3.380 -2.5988  2.0066  1.0350
  262PVA    H3044420   0.844   3.985   3.218 -1.7088 -1.8837  0.6455
  262PVA    C1644421   0.788   4.126   3.348 -0.7429 -1.2732  0.8678
  262PVA    H3144422   0.707   4.069   3.396 -0.2312 -3.2405 -0.4622
  262PVA    H3244423   0.830   4.208   3.407 -0.3728 -0.9049  0.1098
  262PVA    C1744424   0.723   4.184   3.211  0.6143 -0.8188 -1.2207
  262PVA    H3344425   0.669   4.095   3.178 -0.2691 -1.1829  1.0557
  262PVA     O644426   0.830   4.230   3.116 -0.3670  0.1772 -0.5351
  262PVA    H3444427   0.799   4.319   3.092  0.2096 -0.3624 -3.8484
  262PVA    C1844428   0.629   4.315   3.231  0.5677 -0.1305  0.1971
  262PVA    H3544429   0.682   4.378   3.303 -0.1855  1.7541 -0.8382
  262PVA    H3644430   0.639   4.376   3.141 -1.7174 -0.6266 -0.4525
  262PVA    C1944431   0.497   4.277   3.302  0.7305  0.1957  0.3003
  262PVA    H3744432   0.478   4.344   3.388 -1.5828 -2.2901  1.8920
  262PVA    H3844433   0.503   4.189   3.367 -3.5869  1.5586  3.0167
  262PVA    C2044434   0.372   4.284   3.207 -0.2869  0.4489  0.1486
  262PVA    H3944435   0.381   4.349   3.119 -2.2660 -4.0563 -3.8528
  262PVA     O744436   0.364   4.142   3.158 -0.7218 -0.1163 -0.3160
  262PVA    H4044437   0.280   4.135   3.109 -0.8295 -2.5352  0.1345
  262PVA    C2144438   0.245   4.328   3.289 -0.9160  0.6012  0.2394
  262PVA    H4144439   0.261   4.437   3.298 -1.2473  0.9360 -2.4873
  262PVA    H4244440   0.150   4.330   3.235 -1.1370 -1.7965  0.4667
  262PVA    C2244441   0.203   4.252   3.423 -0.1991  0.8696  0.0657
  262PVA    H4344442   0.149   4.160   3.398 -2.1997  2.3548 -1.4177
  262PVA    H4444443   0.293   4.215   3.476 -0.5971 -2.0028 -1.0670
  262PVA    C2344444   0.106   4.313   3.516 -0.4780 -0.7091  0.3930
  262PVA    H4544445   0.023   4.343   3.451  1.3414  2.7298 -0.6052
  262PVA     O844446   0.070   4.212   3.603  0.2011 -0.0894  0.0394
  262PVA    H4644447   7.748   4.176   3.579 -1.5660  3.4826  0.3570
  262PVA    C2444448   0.173   4.433   3.575  0.6419  0.3097  0.6832
  262PVA    H4744449   0.209   4.508   3.505 -2.0488  0.1792 -0.9696
  262PVA    H4844450   0.260   4.404   3.635  3.0427  2.9824 -1.2804
  262PVA    C2544451   0.077   4.520   3.667  0.8030  0.1155  0.1332
  262PVA    H4944452   7.735   4.521   3.643 -0.0307 -4.8699  2.4624
  262PVA    H5044453   0.065   4.445   3.746 -3.0127 -0.7758 -1.0552
  262PVA    C2644454   0.148   4.651   3.713 -0.7160 -0.0107  0.2982
  262PVA    H5144455   0.173   4.695   3.616  1.8443 -0.0116  0.8805
  262PVA     O944456   0.041   4.736   3.761 -0.4371 -0.3936 -0.4237
  262PVA    H5244457   0.059   4.810   3.822 -0.2675 -1.1797  0.4992
  262PVA    C2744458   0.262   4.639   3.817 -0.4678 -1.0768 -0.3429
  262PVA    H5344459   0.320   4.553   3.780 -3.5882 -4.3171  1.6084
  262PVA    H5444460   0.220   4.609   3.914  1.4133 -1.2027  0.4730
  262PVA    C2844461   0.366   4.758   3.835  0.3926  1.5988  0.2709
  262PVA    H5544462   0.406   4.776   3.734 -0.6376 -0.3161 -0.5385
  262PVA    H5644463   0.314   4.852   3.858  0.3630  1.7682 -0.4653
  262PVA    C2944464   0.482   4.737   3.934 -0.9601  0.2073 -0.8379
  262PVA    H5744465   0.501   4.629   3.935 -0.5294  0.1725  3.2502
  262PVA    O1044466   0.434   4.766   4.060  0.6037  0.3249  0.4988
  262PVA    H5844467   0.344   4.804   4.062  0.9256  1.4238 -1.8653
  262PVA    C3044468   0.615   4.801   3.904 -0.3205 -0.7398  0.7285
  262PVA    H5944469   0.636   4.808   3.796 -1.7354  1.5800  0.5406
  262PVA    H6044470   0.623   4.909   3.918  2.2161 -1.0585  2.3827
  262PVA    C3144471   0.735   4.742   3.966  0.0211 -0.3516 -0.1647
  262PVA    H6144472   0.756   4.644   3.922  3.3292  0.9640 -1.8718
  262PVA    H6244473   0.706   4.735   4.072 -0.8776 -3.6948 -0.5297
  262PVA    C3244474   0.872   4.826   3.944  0.5178 -0.2367 -0.7400
  262PVA    H6344475   0.836   4.922   3.905  1.2782 -0.7305 -2.7465
  262PVA    O1144476   0.933   4.833   4.064  0.3456  0.8462  0.6490
  262PVA    H6444477   0.928   4.929   4.083  1.9522  0.7239  1.9461
  262PVA    C3344478   0.969   4.752   3.838  0.7404  0.3005 -1.1102
  262PVA    H6544479   0.938   4.756   3.733  0.8627  1.8496 -1.1088
  262PVA    H6644480   0.985   4.647   3.864 -0.2807  0.1869 -0.9169
  262PVA    C3444481   1.124   4.811   3.847 -0.4514 -0.7833 -0.5722
  262PVA    H6744482   1.124   4.919   3.825  1.0210 -0.1662  2.0539
  262PVA    H6844483   1.149   4.810   3.954  3.9126 -3.7216 -1.3253
  262PVA    C3544484   1.227   4.727   3.766 -0.4077  0.2477  0.6049
  262PVA    H6944485   1.225   4.622   3.797  3.5671 -0.6582 -1.4994
  262PVA    O1244486   1.197   4.747   3.630  0.3268 -0.4878 -0.0275
  262PVA    H7044487   1.187   4.844   3.638 -1.6420 -0.7962  2.7684
  262PVA    C3644488   1.377   4.745   3.807  0.2665  0.0244 -0.1223
  262PVA    H7144489   1.353   4.737   3.913 -2.5000  0.1232 -0.6575
  262PVA    H7244490   1.438   4.661   3.771 -1.1651 -0.1561 -2.3438
  262PVA    C3744491   1.440   4.882   3.763  0.4992  0.6523  0.0198
  262PVA    H7344492   1.506   4.924   3.839  0.3312 -1.7624  1.5929
  262PVA    H7444493   1.361   4.958   3.761 -0.5294 -0.1282  3.9004
  262PVA    C3844494   1.522   4.875   3.628 -0.5370 -0.4543 -0.0688
  262PVA    H7544495   1.615   4.816   3.633 -0.8949 -1.1295 -1.1454
  262PVA    O1344496   1.444   4.818   3.526  0.3902  0.1358 -0.6700
  262PVA    H7644497   1.489   4.832   3.441 -3.1854  4.0795 -2.3293
  262PVA    C3944498   1.576   5.018   3.590 -0.2348  0.3510 -0.0193
  262PVA    H7744499   1.616   4.997   3.490 -0.3806  2.7391 -0.6426
  262PVA    H7844500   1.490   5.083   3.570  1.8922  2.1155 -5.4564
  262PVA    C4044501   1.682   5.086   3.680 -0.1084 -0.2153  0.6170
  262PVA    H7944502   1.762   5.014   3.697  1.3784  0.9668 -1.0341
  262PVA    H8044503   1.633   5.106   3.776 -1.4921  2.0025 -0.4575
  262PVA    C4144504   1.760   5.205   3.614  0.3488  0.2728  0.3786
  262PVA    H8144505   1.800   5.146   3.530  1.5271 -2.0404  2.4475
  262PVA    O1444506   1.678   5.319   3.573 -0.3649 -0.3050  0.0911
  262PVA    H8244507   1.629   5.350   3.651  2.3971  1.6631  1.1985
  262PVA    C4244508   1.863   5.259   3.717  0.1022  0.5245 -0.7449
  262PVA    H8344509   1.812   5.331   3.782  0.8196  2.8751 -2.6279
  262PVA    H8444510   1.882   5.172   3.781  0.0639  2.3387  1.9207
  262PVA    C4344511   1.975   5.328   3.639 -0.2245  1.1596 -0.1670
  262PVA    H8544512   1.984   5.293   3.536 -0.7158  0.6779 -0.0493
  262PVA    H8644513   2.073   5.304   3.682 -0.7239 -1.9160 -0.5518
  262PVA    C4444514   1.963   5.486   3.660  0.0202  0.6148  0.5457
  262PVA    H8744515   1.948   5.502   3.768 -1.5945 -1.0294  0.6152
  262PVA    O1544516   1.852   5.533   3.584  0.9395 -1.1184  0.1345
  262PVA    H8844517   1.781   5.468   3.594  2.5729 -3.0778 -0.2281
  262PVA    C4544518   2.092   5.567   3.634 -1.2379  0.2647  0.5018
  262PVA    H8944519   2.134   5.523   3.542  3.0919  2.1533  1.3608
  262PVA    H9044520   2.163   5.538   3.711 -2.3899 -2.5593  0.6138
  262PVA    C4644521   2.079   5.720   3.622 -0.5294  0.5042  0.4121
  262PVA    H9144522   2.012   5.743   3.538 -2.2480 -1.0595  1.2607
  262PVA    H9244523   2.050   5.776   3.712  0.7869  0.3552  0.9434
  262PVA    C4744524   2.216   5.778   3.580 -0.4871 -0.8084  0.5729
  262PVA    H9344525   2.296   5.717   3.624 -2.0404 -2.8906  0.6852
  262PVA    O1644526   2.237   5.745   3.439 -0.3211  0.0234 -0.3403
  262PVA    H9444527   2.261   5.651   3.432 -1.5224 -0.6556  3.0297
  262PVA    C4844528   2.230   5.937   3.607 -1.0012 -0.0163  0.3063
  262PVA    H9544529   2.175   5.997   3.534  1.5082  2.9508  0.6267
  262PVA    H9644530   2.183   5.965   3.702 -2.1756  0.5755 -0.4264
  262PVA    C4944531   2.380   5.978   3.591 -0.6246 -0.0351  0.9464
  262PVA    H9744532   2.415   5.938   3.495 -0.4206 -0.8047  1.3343
  262PVA    H9844533   2.430   5.921   3.671 -0.5076 -2.5915 -0.8351
  262PVA    C5044534   2.405   6.122   3.585  0.3242  0.1530 -0.0049
  262PVA    H9944535   2.309   6.173   3.598 -0.4519 -0.8039 -1.6230
  262PVA    O1744536   2.508   6.152   3.675 -0.2721 -0.3073 -0.0619
  262PVA   H10044537   2.467   6.208   3.743 -1.5908  3.0036 -3.2362
  262PVA    C5144538   2.464   6.177   3.446 -0.3047 -0.3100  0.3219
  262PVA   H10144539   2.522   6.089   3.415 -0.5567 -2.1303  4.3455
  262PVA   H10244540   2.375   6.180   3.381 -1.0285  2.2549  1.3143
  263PVA     C144541   1.508   2.955   2.044 -0.2354  1.2146  0.0476
  263PVA     H144542   1.559   2.993   1.955 -0.7371  1.5159 -0.1162
  263PVA     H244543   1.586   2.915   2.110 -1.0813 -1.5633 -0.4724
  263PVA     C244544   1.414   2.841   1.996  0.6522 -0.1216 -0.3948
  263PVA     H344545   1.332   2.825   2.067 -0.5516 -0.9801 -1.9075
  263PVA     O144546   1.345   2.894   1.880 -0.1544 -0.2286  0.0152
  263PVA     H444547   1.423   2.896   1.822 -0.2413 -1.8969 -0.2076
  263PVA     C344548   1.479   2.705   1.950  0.7635  0.7945  0.1859
  263PVA     H544549   1.509   2.643   2.035 -0.7326 -2.9345 -1.7406
  263PVA     H644550   1.572   2.712   1.893  0.7785 -0.3576  0.0443
  263PVA     C444551   1.378   2.604   1.876  2.2703  0.1847  0.0813
  263PVA     H744552   1.288   2.597   1.939  0.8533  2.1247 -1.5874
  263PVA     H844553   1.342   2.643   1.780 -3.0056 -2.4598  0.6012
  263PVA     C544554   1.445   2.469   1.831 -0.1348  0.6873 -1.1548
  263PVA     H944555   1.477   2.441   1.932 -7.6648 -0.8074  1.4653
  263PVA     O244556   1.552   2.495   1.750  0.2979  0.1144  0.8246
  263PVA    H1044557   1.595   2.407   1.746 -0.4416 -0.4865  3.8124
  263PVA     C644558   1.352   2.361   1.774 -0.4512  0.3730  0.5631
  263PVA    H1144559   1.246   2.356   1.801 -1.2065 -3.0261 -2.2936
  263PVA    H1244560   1.342   2.393   1.669 -1.9981  0.1486  0.6115
  263PVA     C744561   1.415   2.217   1.801 -0.8364 -0.5122 -0.4377
  263PVA    H1344562   1.517   2.221   1.840 -0.5702 -1.1937 -1.0328
  263PVA    H1444563   1.437   2.180   1.700 -3.9684  0.8070 -1.7227
  263PVA     C844564   1.320   2.108   1.868  0.6905  0.3697 -0.6563
  263PVA    H1544565   1.279   2.185   1.934 -0.6504  2.5023 -3.7449
  263PVA     O344566   1.214   2.074   1.781  1.1079  0.2154  0.8253
  263PVA    H1644567   1.214   2.112   1.692 -3.3531 -2.5038 -0.6670
  263PVA     C944568   1.371   1.978   1.953 -0.7914 -0.2945  0.6787
  263PVA    H1744569   1.404   1.893   1.891 -1.3179  1.7743 -2.6906
  263PVA    H1844570   1.472   1.996   1.992  0.4239  0.3683 -2.4703
  263PVA    C1044571   1.286   1.921   2.076  0.6337  0.0642  0.6402
  263PVA    H1944572   1.311   1.965   2.174 -1.4923  0.2405  1.1405
  263PVA    H2044573   1.183   1.955   2.061  1.0394  1.5809  1.1325
  263PVA    C1144574   1.269   1.764   2.081 -0.7840 -0.4221 -0.2006
  263PVA    H2144575   1.227   1.734   1.984  1.0385  3.5236 -2.4439
  263PVA     O444576   1.398   1.703   2.069  0.4387  0.0508  0.0252
  263PVA    H2244577   1.373   1.611   2.047 -2.8679  0.9952 -0.7193
  263PVA    C1244578   1.180   1.701   2.201  0.1799 -0.2899 -0.5216
  263PVA    H2344579   1.213   1.756   2.290  1.6041  0.1485 -1.2966
  263PVA    H2444580   1.082   1.748   2.188 -0.6371 -1.1999  1.7102
  263PVA    C1344581   1.159   1.543   2.211  0.2419  0.8327 -0.1125
  263PVA    H2544582   1.262   1.505   2.222  0.9500  2.8356  0.6730
  263PVA    H2644583   1.127   1.515   2.110  0.0558  5.0295 -1.4020
  263PVA    C1444584   1.064   1.505   2.334  0.9511  0.4708 -0.8173
  263PVA    H2744585   1.023   1.599   2.373  0.2596  0.3707 -1.3005
  263PVA     O544586   0.968   1.420   2.261 -0.1041 -0.0904  0.2447
  263PVA    H2844587   1.010   1.402   2.175 -2.0201 -2.8717 -0.2643
  263PVA    C1544588   1.122   1.423   2.454  0.5549 -0.1023  0.5474
  263PVA    H2944589   1.207   1.488   2.477  1.8783 -0.8921 -1.8458
  263PVA    H3044590   1.167   1.329   2.422  0.6049 -0.2988  1.1871
  263PVA    C1644591   1.014   1.408   2.571  0.0287 -0.1237  0.9678
  263PVA    H3144592   0.970   1.502   2.609 -2.0935  0.3471 -2.2323
  263PVA    H3244593   0.928   1.352   2.533  0.9383 -4.0267  4.0670
  263PVA    C1744594   1.069   1.344   2.692  0.6799 -0.4723  0.2835
  263PVA    H3344595   1.173   1.379   2.695  1.1537 -1.6857 -0.9709
  263PVA     O644596   1.085   1.201   2.668  1.1614  0.7097 -0.2275
  263PVA    H3444597   1.181   1.187   2.663  1.8983  4.5132  0.1972
  263PVA    C1844598   1.026   1.365   2.847 -0.4858 -0.4786 -0.4505
  263PVA    H3544599   1.117   1.325   2.893  0.1853  0.8389 -0.5953
  263PVA    H3644600   1.012   1.473   2.855 -5.2572 -0.7893 -1.6300
  263PVA    C1944601   0.904   1.307   2.908 -0.1598  0.5125  0.8891
  263PVA    H3744602   0.824   1.382   2.896 -1.8772 -1.2320  0.9601
  263PVA    H3844603   0.876   1.218   2.851 -0.4645  2.4363 -2.1547
  263PVA    C2044604   0.907   1.263   3.058  0.1501 -1.1869 -1.4541
  263PVA    H3944605   1.000   1.205   3.065  0.3805 -0.7622 -0.9419
  263PVA     O744606   0.945   1.384   3.135 -0.8301  1.0957 -0.6572
  263PVA    H4044607   0.885   1.460   3.122  0.5320  2.6023  1.1332
  263PVA    C2144608   0.770   1.196   3.112 -0.1297  0.8151 -0.3138
  263PVA    H4144609   0.736   1.148   3.019  2.5537 -0.1461 -0.8705
  263PVA    H4244610   0.707   1.283   3.136  2.4385  1.8283  3.6653
  263PVA    C2244611   0.779   1.103   3.238 -0.6151 -0.6403 -1.2204
  263PVA    H4344612   0.857   1.027   3.220  2.6164  1.3806  2.6500
  263PVA    H4444613   0.819   1.156   3.325  2.9721 -0.9661 -2.4685
  263PVA    C2344614   0.643   1.041   3.290 -0.1284 -0.3024  0.0092
  263PVA    H4544615   0.587   1.031   3.196  4.0407  0.4656 -2.8046
  263PVA     O844616   0.582   1.137   3.367  0.0343 -0.8600 -0.9502
  263PVA    H4644617   0.647   1.203   3.399 -1.2047  0.1357 -0.3871
  263PVA    C2444618   0.643   0.902   3.377  0.0260 -0.1620  0.5130
  263PVA    H4744619   0.726   0.842   3.337  0.9430  1.0153  0.6015
  263PVA    H4844620   0.660   0.913   3.484  0.1219 -1.6442  0.6704
  263PVA    C2544621   0.533   0.794   3.367 -0.2331  0.0674 -0.9012
  263PVA    H4944622   0.473   0.810   3.457 -0.3920  1.6696 -1.2633
  263PVA    H5044623   0.460   0.814   3.288 -1.5037 -0.3609  0.1412
  263PVA    C2644624   0.590   0.647   3.361 -0.0379 -1.3600  0.2123
  263PVA    H5144625   0.676   0.641   3.293  0.1580  0.0209  0.3204
  263PVA     O944626   0.627   0.608   3.491 -0.5204  0.5306 -1.2566
  263PVA    H5244627   0.618   0.511   3.499 -0.7100  0.1486 -4.6300
  263PVA    C2744628   0.493   0.541   3.312  2.0017  0.7435 -0.3349
  263PVA    H5344629   0.474   0.547   3.204  0.0984  0.8290 -0.0287
  263PVA    H5444630   0.392   0.559   3.351  2.2763  1.5705  0.0186
  263PVA    C2844631   0.547   0.391   3.322  0.1316  0.3125 -0.6454
  263PVA    H5544632   0.653   0.393   3.296  0.2043  0.5388 -0.3456
  263PVA    H5644633   0.536   0.351   3.424 -0.6462 -1.7114 -1.4713
  263PVA    C2944634   0.493   0.283   3.227 -0.0403  0.1538 -0.3370
  263PVA    H5744635   0.552   0.282   3.135 -0.3822  6.8055 -1.1490
  263PVA    O1044636   0.362   0.324   3.185  1.3580  0.3041  0.6313
  263PVA    H5844637   0.357   0.421   3.179  4.0940  0.4377 -1.0467
  263PVA    C3044638   0.485   0.140   3.287  0.0777  0.3318  0.4574
  263PVA    H5944639   0.576   0.145   3.348  0.0024  3.1307  0.4988
  263PVA    H6044640   0.404   0.132   3.361 -0.5690  0.8767 -0.1757
  263PVA    C3144641   0.456   0.032   3.178  0.3282  0.1061  0.5154
  263PVA    H6144642   0.351   0.033   3.146 -0.2138  0.7343  2.1819
  263PVA    H6244643   0.529   0.044   3.098  1.6235 -1.6581  1.3809
  263PVA    C3244644   0.477   7.576   3.233 -0.3900  0.2044  0.2877
  263PVA    H6344645   0.557   7.578   3.308  1.2200  0.8161 -1.3579
  263PVA    O1144646   0.353   7.529   3.274  0.2365  0.7346  0.0477
  263PVA    H6444647   0.286   7.562   3.212  1.7236 -0.2674 -2.2670
  263PVA    C3344648   0.517   7.494   3.115  0.8860  0.3663 -0.7722
  263PVA    H6544649   0.619   7.528   3.091  2.1736 -0.9512  2.2858
  263PVA    H6644650   0.440   7.496   3.037  1.6675  0.2279 -1.5545
  263PVA    C3444651   0.539   7.338   3.151 -0.0178 -0.1153  0.9716
  263PVA    H6744652   0.642   7.335   3.188  0.1085 -0.3266  0.6105
  263PVA    H6844653   0.490   7.303   3.243 -1.5618  4.1063  2.0112
  263PVA    C3544654   0.541   7.228   3.037  0.4084  1.1443  0.4338
  263PVA    H6944655   0.619   7.267   2.971 -0.6395  2.2719 -0.1910
  263PVA    O1244656   0.420   7.240   2.972  0.6103  0.4301 -0.1152
  263PVA    H7044657   0.357   7.298   3.019  0.7211  0.7909 -0.4021
  263PVA    C3644658   0.559   7.076   3.078 -0.8186 -0.7318 -0.0390
  263PVA    H7144659   0.665   7.086   3.106 -1.7256  1.2188  3.3304
  263PVA    H7244660   0.482   7.070   3.156 -0.3857 -0.1397  0.4421
  263PVA    C3744661   0.531   6.964   2.973 -0.0597 -0.9414 -0.5652
  263PVA    H7344662   0.602   6.991   2.894  4.8849 -0.7510  3.4989
  263PVA    H7444663   0.429   6.993   2.942  1.0234  1.8947 -1.7963
  263PVA    C3844664   0.540   6.810   2.987  0.7061  0.0844  1.1114
  263PVA    H7544665   0.627   6.765   2.937  0.1774  1.8295 -1.6166
  263PVA    O1344666   0.526   6.779   3.119  0.1791 -0.4971 -0.6245
  263PVA    H7644667   0.597   6.804   3.181 -0.7883 -1.5475  0.9859
  263PVA    C3944668   0.425   6.723   2.915 -0.8560  0.5346 -0.2762
  263PVA    H7744669   0.378   6.654   2.986  0.0533  0.3610  0.1796
  263PVA    H7844670   0.347   6.792   2.882  1.4112  1.3044 -4.6883
  263PVA    C4044671   0.471   6.654   2.783  1.1253 -0.2703  0.0097
  263PVA    H7944672   0.490   6.729   2.705 -3.1732  0.4891 -0.5455
  263PVA    H8044673   0.566   6.608   2.813  0.3870 -1.8255  0.0374
  263PVA    C4144674   0.383   6.544   2.706 -0.0835  0.1191  0.1665
  263PVA    H8144675   0.373   6.467   2.784 -0.5772 -2.0827 -1.9431
  263PVA    O1444676   0.263   6.588   2.696  0.2432  0.1598  1.0547
  263PVA    H8244677   0.258   6.681   2.669 -1.4670 -0.3656 -0.6464
  263PVA    C4244678   0.442   6.471   2.586 -0.8704  0.5190  1.5847
  263PVA    H8344679   0.410   6.524   2.496  2.2869  1.0112  0.6347
  263PVA    H8444680   0.551   6.474   2.577 -1.0422  0.8083 -1.4983
  263PVA    C4344681   0.407   6.321   2.549 -0.4825  0.6967  0.1972
  263PVA    H8544682   0.299   6.308   2.556 -0.9458  3.0588 -1.6012
  263PVA    H8644683   0.450   6.254   2.625  1.7347 -3.0242 -3.8048
  263PVA    C4444684   0.449   6.237   2.426  1.0779 -0.8787 -0.1711
  263PVA    H8744685   0.416   6.283   2.332  0.0726  2.6720  1.7698
  263PVA    O1544686   0.590   6.239   2.431 -0.2640 -0.0069  0.2754
  263PVA    H8844687   0.626   6.330   2.428 -0.0043 -0.0978  0.5762
  263PVA    C4544688   0.391   6.090   2.413 -0.9065  0.3394 -0.3315
  263PVA    H8944689   0.359   6.045   2.508 -0.3262  1.0494  0.2151
  263PVA    H9044690   0.306   6.105   2.346 -0.1126  3.2159 -0.8255
  263PVA    C4644691   0.487   5.996   2.329 -0.3389  0.0850 -0.3408
  263PVA    H9144692   0.495   6.035   2.227  4.1878  3.2945  0.9154
  263PVA    H9244693   0.591   6.011   2.362  0.9369 -0.3139 -3.7959
  263PVA    C4744694   0.438   5.852   2.321 -0.6306  0.5899  0.5458
  263PVA    H9344695   0.339   5.847   2.275 -0.1084 -2.5744 -0.5313
  263PVA    O1644696   0.439   5.798   2.453  0.0808 -0.0606  0.4669
  263PVA    H9444697   0.511   5.844   2.499 -1.6567  0.1943  3.1459
  263PVA    C4844698   0.524   5.751   2.231  0.2128 -0.8356  0.5578
  263PVA    H9544699   0.519   5.791   2.129  1.2337 -1.8793  0.0778
  263PVA    H9644700   0.618   5.786   2.275  1.7628 -0.1494 -2.9959
  263PVA    C4944701   0.510   5.597   2.248  0.4038  0.6375  0.2826
  263PVA    H9744702   0.565   5.572   2.339  3.3471  0.7032 -1.3370
  263PVA    H9844703   0.404   5.579   2.270  0.2766  0.3936 -0.4873
  263PVA    C5044704   0.558   5.517   2.126  0.6454  0.3642 -0.4298
  263PVA    H9944705   0.540   5.409   2.141  0.9105  0.5610  1.6146
  263PVA    O1744706   0.692   5.538   2.121 -0.1670 -0.1283 -0.2227
  263PVA   H10044707   0.724   5.466   2.178  3.2312 -0.6278 -2.4768
  263PVA    C5144708   0.478   5.539   1.991  0.7924 -0.3587 -0.4614
  263PVA   H10144709   0.457   5.646   1.981 -0.1248 -0.4944 -0.1023
  263PVA   H10244710   0.387   5.478   2.002  3.0670 -3.6172  2.5304
  264PVA     C144711   2.767   7.258   2.938 -0.4420 -0.8875 -0.2966
  264PVA     H144712   2.834   7.321   2.998 -2.0651  1.9974 -1.3425
  264PVA     H244713   2.669   7.267   2.987 -0.8019 -1.3074 -0.9329
  264PVA     C244714   2.763   7.328   2.798  0.9475  0.7100 -0.6733
  264PVA     H344715   2.724   7.258   2.722  4.6622 -3.0761  0.4887
  264PVA     O144716   2.902   7.344   2.767  0.6091  0.6837 -0.2742
  264PVA     H444717   2.907   7.255   2.728  0.5187  0.1058  0.9917
  264PVA     C344718   2.694   7.472   2.797  0.4935  0.4080 -1.1175
  264PVA     H544719   2.766   7.541   2.842 -2.4049  2.0576  1.4166
  264PVA     H644720   2.602   7.480   2.856  1.3270  0.9900  0.1402
  264PVA     C444721   2.650   7.545   2.671  0.6931  0.2323  0.8469
  264PVA     H744722   2.732   7.531   2.600  0.6310  0.2666  0.7687
  264PVA     H844723   2.574   7.478   2.628 -0.2727  1.5693  0.4006
  264PVA     C544724   2.604   0.022   2.671 -0.2604  0.3490  0.3322
  264PVA     H944725   2.688   0.076   2.715 -1.7014  0.5035  3.1141
  264PVA     O244726   2.493   0.022   2.765  0.7243 -0.1982  0.2923
  264PVA    H1044727   2.524   7.671   2.850  2.1389  0.3996  0.0491
  264PVA     C644728   2.560   0.089   2.535 -0.0239  0.3364 -0.2422
  264PVA    H1144729   2.622   0.052   2.452  2.5818 -2.1253  2.5210
  264PVA    H1244730   2.454   0.076   2.510  0.1226  1.1949 -1.4063
  264PVA     C744731   2.576   0.260   2.544 -0.3965  0.1646  0.3529
  264PVA    H1344732   2.659   0.282   2.612  2.8761 -1.2553 -2.8725
  264PVA    H1444733   2.501   0.296   2.616  0.8219  3.1612  0.2743
  264PVA     C844734   2.563   0.355   2.408 -0.1901  0.7402 -0.7486
  264PVA    H1544735   2.587   0.289   2.325  2.9197 -0.4289  0.8979
  264PVA     O344736   2.442   0.420   2.399  0.2626  0.0110 -0.3195
  264PVA    H1644737   2.439   0.506   2.353  2.0953  2.6275  3.9105
  264PVA     C944738   2.659   0.476   2.370 -0.0198  0.2575 -0.1531
  264PVA    H1744739   2.654   0.547   2.453  3.2983  1.1221 -0.5545
  264PVA    H1844740   2.765   0.451   2.386 -0.4356 -1.0059  0.9243
  264PVA    C1044741   2.655   0.518   2.222  0.5449  0.2482  1.3523
  264PVA    H1944742   2.761   0.541   2.201  1.0537 -0.6892  2.7662
  264PVA    H2044743   2.614   0.435   2.164 -0.3263  0.1440  2.1054
  264PVA    C1144744   2.576   0.659   2.196  0.4269 -0.8895  0.0418
  264PVA    H2144745   2.622   0.750   2.237 -2.3008  0.7020 -0.1759
  264PVA     O444746   2.443   0.645   2.235  0.2009  0.3863  0.4694
  264PVA    H2244747   2.417   0.736   2.257 -0.5349 -0.0162  1.3158
  264PVA    C1244748   2.584   0.690   2.048 -0.5996  0.0055 -0.2173
  264PVA    H2344749   2.690   0.698   2.021 -0.3166 -0.6433  0.6599
  264PVA    H2444750   2.540   0.613   1.984  0.3959 -1.7717  1.1304
  264PVA    C1344751   2.528   0.842   2.017 -0.6787  0.3470  1.2056
  264PVA    H2544752   2.601   0.922   2.034  0.4425  0.0122 -1.5589
  264PVA    H2644753   2.444   0.856   2.086  1.0069  3.9769  2.7901
  264PVA    C1444754   2.483   0.876   1.864  0.9627  0.1659 -0.0490
  264PVA    H2744755   2.582   0.865   1.817  2.0176  3.3311  1.1778
  264PVA     O544756   2.393   0.780   1.825 -0.0789 -0.6332 -0.5158
  264PVA    H2844757   2.366   0.797   1.733  2.8231 -2.1036 -1.7627
  264PVA    C1544758   2.448   1.014   1.802 -0.3661 -0.9558  0.4938
  264PVA    H2944759   2.433   1.006   1.693  1.1583 -2.1203  0.3400
  264PVA    H3044760   2.544   1.062   1.825  0.3688 -2.9103  1.7189
  264PVA    C1644761   2.323   1.098   1.852  0.7478  0.4409 -0.8047
  264PVA    H3144762   2.230   1.055   1.813  0.4296 -0.3898  0.7805
  264PVA    H3244763   2.304   1.090   1.959 -4.8898  1.9864 -1.3585
  264PVA    C1744764   2.328   1.246   1.804  0.2492  0.8995  0.0390
  264PVA    H3344765   2.424   1.291   1.831  0.3081  1.4721 -1.0440
  264PVA     O644766   2.326   1.264   1.666  0.7653 -0.2282 -0.0185
  264PVA    H3444767   2.363   1.350   1.641 -0.7594  0.8913  1.3920
  264PVA    C1844768   2.225   1.354   1.861  0.8168  0.0642 -0.3752
  264PVA    H3544769   2.131   1.333   1.809  0.8045 -0.5591 -0.1118
  264PVA    H3644770   2.192   1.330   1.963 -2.7953 -1.9005 -1.8034
  264PVA    C1944771   2.260   1.511   1.834 -0.6757  1.6234 -0.1218
  264PVA    H3744772   2.335   1.555   1.902 -0.9669  0.4549  0.9835
  264PVA    H3844773   2.317   1.516   1.740 -0.0030 -0.2087  0.1437
  264PVA    C2044774   2.152   1.626   1.832 -0.2148  1.1178  0.6976
  264PVA    H3944775   2.106   1.615   1.932 -2.1374  2.7248  0.0610
  264PVA     O744776   2.057   1.586   1.733 -0.8525 -0.1845  0.0327
  264PVA    H4044777   2.012   1.664   1.697  3.2257  1.5332 -2.0181
  264PVA    C2144778   2.202   1.766   1.841  0.4038 -0.0611  0.2780
  264PVA    H4144779   2.276   1.798   1.767  3.5042  2.6095  4.0903
  264PVA    H4244780   2.247   1.801   1.936 -2.1685 -3.6090  3.0685
  264PVA    C2244781   2.098   1.876   1.802  0.2343 -0.2095  0.3109
  264PVA    H4344782   2.092   1.885   1.693  3.2035 -2.8990 -0.2005
  264PVA    H4444783   1.996   1.843   1.823  0.6607 -3.1132 -1.6593
  264PVA    C2344784   2.113   2.022   1.846  0.4639 -0.7116 -0.2429
  264PVA    H4544785   2.220   2.043   1.865 -0.4812  1.7976  3.5962
  264PVA     O844786   2.062   2.031   1.985  1.3495 -0.0902  0.0057
  264PVA    H4644787   1.986   1.969   1.982 -2.3750  3.9734 -1.3922
  264PVA    C2444788   2.041   2.143   1.765  0.1017 -0.5522 -0.5704
  264PVA    H4744789   1.943   2.103   1.734  1.8101 -4.1168 -2.0604
  264PVA    H4844790   2.085   2.157   1.665 -2.5072  0.4119 -1.6506
  264PVA    C2544791   2.034   2.291   1.842 -0.2511 -0.0214 -0.1302
  264PVA    H4944792   2.136   2.320   1.868  0.7110 -0.4883 -2.9782
  264PVA    H5044793   1.993   2.295   1.943 -0.9542 -1.6238 -0.3186
  264PVA    C2644794   1.967   2.411   1.756  0.7514 -0.5676  0.1368
  264PVA    H5144795   2.025   2.426   1.665  3.7854  1.4956  2.2103
  264PVA     O944796   1.838   2.387   1.713 -0.4287  0.8486  0.7734
  264PVA    H5244797   1.788   2.363   1.792 -0.5127  0.1677  0.5145
  264PVA    C2744798   1.980   2.556   1.826 -1.0372 -0.0106  0.0024
  264PVA    H5344799   2.088   2.574   1.816 -1.2675  1.2350 -0.3749
  264PVA    H5444800   1.968   2.535   1.934 -2.7503 -0.4968 -0.2427
  264PVA    C2844801   1.917   2.680   1.762  0.0515  0.6156  0.4935
  264PVA    H5544802   1.948   2.681   1.656 -1.0431  3.5617  0.1280
  264PVA    H5644803   1.811   2.655   1.774 -0.0890  1.7767  1.7963
  264PVA    C2944804   1.934   2.813   1.828  1.2213 -0.7131 -0.6751
  264PVA    H5744805   2.032   2.822   1.876  1.1578 -0.5638 -0.5731
  264PVA    O1044806   1.838   2.806   1.932  0.2773 -0.3463  0.9610
  264PVA    H5844807   1.834   2.712   1.956  0.2445 -1.5912 -3.1547
  264PVA    C3044808   1.900   2.930   1.729  0.8124  0.5027 -0.3748
  264PVA    H5944809   1.803   2.972   1.757 -1.0125 -1.9181 -2.4922
  264PVA    H6044810   1.885   2.911   1.622  2.0183 -0.2980 -0.4187
  264PVA    C3144811   2.017   3.036   1.732 -0.0135  0.1074  0.4369
  264PVA    H6144812   2.117   2.995   1.748  0.6369  2.1216  1.9690
  264PVA    H6244813   2.002   3.095   1.824 -2.2648  1.1448 -0.5088
  264PVA    C3244814   2.019   3.162   1.631  1.1518 -0.8523 -0.3927
  264PVA    H6344815   1.946   3.136   1.553 -0.3928 -3.6743  1.8085
  264PVA    O1144816   2.150   3.160   1.569  0.3383 -0.0574  0.9249
  264PVA    H6444817   2.218   3.197   1.628 -0.8664  2.7897  0.6583
  264PVA    C3344818   2.011   3.315   1.681  0.1750 -0.9455 -1.0461
  264PVA    H6544819   2.065   3.377   1.608 -0.8502  2.0607  0.5537
  264PVA    H6644820   2.061   3.342   1.775 -0.3142  0.3945 -1.1546
  264PVA    C3444821   1.876   3.414   1.674 -0.0794  0.1563 -0.1284
  264PVA    H6744822   1.842   3.435   1.572  0.9787 -1.4783 -0.8621
  264PVA    H6844823   1.796   3.358   1.724 -1.5018 -1.5327 -3.9522
  264PVA    C3544824   1.872   3.553   1.748 -0.4690  0.0433 -0.2120
  264PVA    H6944825   1.946   3.622   1.707 -1.7956  4.8042  4.2727
  264PVA    O1244826   1.919   3.527   1.885 -0.0131  0.3280 -0.2627
  264PVA    H7044827   1.834   3.499   1.923  0.1853  0.6746  0.4560
  264PVA    C3644828   1.729   3.618   1.750  0.2727  0.7893  0.2039
  264PVA    H7144829   1.663   3.537   1.783  0.0336  1.8119  2.4762
  264PVA    H7244830   1.699   3.637   1.646 -4.6528  0.6579  1.3537
  264PVA    C3744831   1.731   3.764   1.817 -0.1519 -0.2111  0.1745
  264PVA    H7344832   1.789   3.821   1.744 -0.1271  0.5380  0.7694
  264PVA    H7444833   1.798   3.772   1.904 -1.1092  0.1530  0.8983
  264PVA    C3844834   1.594   3.828   1.856 -0.1153  0.7486 -1.0436
  264PVA    H7544835   1.572   3.831   1.963 -0.4025  4.2705 -1.0652
  264PVA    O1344836   1.502   3.766   1.771  0.0201 -0.1494  0.0750
  264PVA    H7644837   1.457   3.711   1.837 -0.0903 -2.0081 -1.4453
  264PVA    C3944838   1.569   3.980   1.823  0.2625  0.2679  0.0611
  264PVA    H7744839   1.584   3.993   1.715  2.0969  2.3406  0.4984
  264PVA    H7844840   1.651   4.043   1.859 -0.0516  0.5220  0.3373
  264PVA    C4044841   1.430   4.039   1.871  0.0708  0.2320  0.0076
  264PVA    H7944842   1.353   3.961   1.884 -2.7164  2.8836  0.4070
  264PVA    H8044843   1.453   4.076   1.972 -0.9635 -0.1587  0.3999
  264PVA    C4144844   1.363   4.148   1.783  0.4527  1.2701  0.2465
  264PVA    H8144845   1.326   4.110   1.687 -2.6693  2.9556  0.6374
  264PVA    O1444846   1.462   4.239   1.759 -0.9160 -0.8511 -0.4363
  264PVA    H8244847   1.533   4.187   1.717  2.6918  1.7098  1.8319
  264PVA    C4244848   1.243   4.221   1.850  0.5951  0.5032  1.1417
  264PVA    H8344849   1.170   4.142   1.869  0.4034  1.4094  5.0913
  264PVA    H8444850   1.264   4.252   1.953  1.6674 -2.2318  1.8302
  264PVA    C4344851   1.179   4.348   1.774  1.4893  0.2453  0.4434
  264PVA    H8544852   1.198   4.340   1.667 -1.7639  2.9257 -0.5035
  264PVA    H8644853   1.229   4.440   1.807 -0.2626  0.0758  4.0866
  264PVA    C4444854   1.030   4.394   1.809  0.1794  1.6589  0.0083
  264PVA    H8744855   1.032   4.384   1.918  0.9546 -2.4975 -0.2479
  264PVA    O1544856   0.949   4.292   1.747  0.1826 -0.3152  0.1597
  264PVA    H8844857   0.985   4.203   1.763  0.8982 -0.1347 -0.3650
  264PVA    C4544858   0.997   4.540   1.777  0.3439 -0.1713  0.2520
  264PVA    H8944859   0.972   4.541   1.671 -2.2837 -0.1796  0.8061
  264PVA    H9044860   1.076   4.615   1.783 -1.0766  1.7707 -2.9072
  264PVA    C4644861   0.878   4.603   1.853  0.3253 -0.6025 -1.0910
  264PVA    H9144862   0.792   4.544   1.818 -3.0298  2.0872  1.8530
  264PVA    H9244863   0.894   4.584   1.960  0.0983  1.0449 -0.7387
  264PVA    C4744864   0.848   4.755   1.819 -0.0021  0.9537  0.1533
  264PVA    H9344865   0.861   4.755   1.710  0.8041  0.6742  0.2381
  264PVA    O1644866   0.952   4.809   1.899  0.3854  0.4856  0.3146
  264PVA    H9444867   0.965   4.761   1.983  1.9693 -2.1965 -1.2975
  264PVA    C4844868   0.708   4.794   1.866 -1.0016  0.5245  0.7752
  264PVA    H9544869   0.643   4.706   1.872 -2.5874  1.7145  1.5000
  264PVA    H9644870   0.730   4.847   1.959  0.2380 -3.6635  3.1252
  264PVA    C4944871   0.638   4.906   1.761 -0.1799 -0.1943 -0.2270
  264PVA    H9744872   0.536   4.918   1.800  0.0859 -1.3392  0.8818
  264PVA    H9844873   0.635   4.863   1.660 -1.2637  1.0084 -0.7434
  264PVA    C5044874   0.685   5.054   1.774 -0.7059  0.3476 -1.0115
  264PVA    H9944875   0.666   5.071   1.881  2.4767 -2.0754  0.0941
  264PVA    O1744876   0.830   5.063   1.758  0.5102 -0.2473  0.7246
  264PVA   H10044877   0.872   5.010   1.829  1.0728 -1.5055 -0.5050
  264PVA    C5144878   0.619   5.153   1.670 -0.4004  0.2473  1.1869
  264PVA   H10144879   0.677   5.143   1.578 -0.0150 -0.7177  1.5219
  264PVA   H10244880   0.519   5.112   1.648  0.9545 -2.5922 -0.1400
  265PVA     C144881   3.144   7.025   3.146  0.4237  0.1724  0.8292
  265PVA     H144882   3.193   6.996   3.052 -3.1557 -0.1120 -1.0900
  265PVA     H244883   3.173   7.127   3.174  1.0425  0.6696 -1.3864
  265PVA     C244884   3.200   6.925   3.245  1.0259  0.0613 -0.5855
  265PVA     H344885   3.155   6.838   3.195 -2.3769  0.8739  0.7450
  265PVA     O144886   3.343   6.929   3.252 -0.2403  0.1223  0.2369
  265PVA     H444887   3.358   6.881   3.335 -4.5108 -3.8180 -0.8511
  265PVA     C344888   3.141   6.949   3.385  1.1447  0.4459 -1.2149
  265PVA     H544889   3.033   6.934   3.370  0.7474 -1.0017  2.1484
  265PVA     H644890   3.157   7.057   3.390 -2.1339  1.1100 -2.5499
  265PVA     C444891   3.198   6.869   3.515  0.0262  0.3847  0.6055
  265PVA     H744892   3.238   6.771   3.486 -2.1327 -0.6393  0.8890
  265PVA     H844893   3.293   6.920   3.534  1.7645 -2.6704  0.8200
  265PVA     C544894   3.117   6.871   3.643  0.8182  0.4532 -0.5110
  265PVA     H944895   3.108   6.980   3.654  1.8108  0.4841  0.1026
  265PVA     O244896   2.989   6.814   3.627 -0.8529  0.0354 -0.2377
  265PVA    H1044897   3.012   6.723   3.651 -1.5422 -0.3940 -1.1193
  265PVA     C644898   3.190   6.822   3.781  0.5897 -0.2440  1.0412
  265PVA    H1144899   3.144   6.725   3.806  0.0323 -0.0271  0.8819
  265PVA    H1244900   3.295   6.795   3.762  0.4031  1.0390 -2.3653
  265PVA     C744901   3.168   6.916   3.898 -0.1885  0.2819  0.0852
  265PVA    H1344902   3.092   6.989   3.870  0.5143  0.8069 -0.4770
  265PVA    H1444903   3.249   6.990   3.905  3.4802 -3.2479 -1.1351
  265PVA     C844904   3.149   6.855   4.040 -0.2880  1.0023 -0.1675
  265PVA    H1544905   3.121   6.945   4.096 -0.9979  0.0295  1.0618
  265PVA     O344906   3.038   6.778   4.026 -0.4297 -0.0408  1.3884
  265PVA    H1644907   3.026   6.765   3.930 -0.6889  0.6866  1.3165
  265PVA     C944908   3.275   6.774   4.092  0.9478  0.0759  0.4715
  265PVA    H1744909   3.243   6.682   4.142  1.3081 -0.9516 -1.1135
  265PVA    H1844910   3.321   6.735   4.001  2.7849  2.6812  0.1752
  265PVA    C1044911   3.381   6.841   4.178  0.8956  0.3521  0.2197
  265PVA    H1944912   3.389   6.939   4.130 -0.6060 -0.2081 -1.3167
  265PVA    H2044913   3.335   6.863   4.275 -0.0717 -1.7675  0.3071
  265PVA    C1144914   3.506   6.757   4.188 -1.7649 -0.2900 -0.9740
  265PVA    H2144915   3.546   6.717   4.094 -2.3784 -0.7759 -1.0332
  265PVA     O444916   3.498   6.643   4.276  0.1833 -0.1739 -0.1890
  265PVA    H2244917   3.523   6.671   4.365  0.0508  1.0240 -0.5169
  265PVA    C1244918   3.617   6.857   4.243 -1.0430  0.5792 -0.5486
  265PVA    H2344919   3.667   6.895   4.153  2.0962  1.2753  1.3104
  265PVA    H2444920   3.583   6.944   4.301 -0.8151 -0.5907  1.4452
  265PVA    C1344921   3.743   6.802   4.317  0.7513  0.2209  0.0070
  265PVA    H2544922   3.727   6.774   4.421 -1.4394  2.1014  0.2456
  265PVA    H2644923   3.767   6.712   4.259 -3.3423  0.0017 -1.6856
  265PVA    C1444924   3.871   6.891   4.313  0.0157  0.1328  0.5906
  265PVA    H2744925   3.894   6.923   4.211  1.1749  2.5044  1.5089
  265PVA     O544926   3.868   7.013   4.373  0.4677 -0.4564  0.8101
  265PVA    H2844927   3.857   6.985   4.466  4.7380 -1.9529  1.0770
  265PVA    C1544928   4.009   6.825   4.354 -0.3325  0.8026 -0.2209
  265PVA    H2944929   4.013   6.718   4.329 -0.9007 -0.1019  3.0820
  265PVA    H3044930   4.031   6.839   4.460  1.2887 -0.8720 -0.2686
  265PVA    C1644931   4.139   6.888   4.272 -0.5509 -0.5813 -0.8830
  265PVA    H3144932   4.156   6.867   4.166  0.5280  1.4100 -1.1676
  265PVA    H3244933   4.131   6.996   4.294 -0.8225 -0.7880  0.0808
  265PVA    C1744934   4.269   6.854   4.353  0.9244  0.1476  0.2938
  265PVA    H3344935   4.237   6.750   4.372 -2.7096  0.8028 -1.5046
  265PVA     O644936   4.396   6.878   4.295  0.2176  0.5255  0.6311
  265PVA    H3444937   4.372   6.931   4.216 -0.6270  1.2830  1.3785
  265PVA    C1844938   4.293   6.932   4.480 -1.0543  0.2833 -0.8315
  265PVA    H3544939   4.335   7.025   4.441 -3.2107  0.1567 -3.7940
  265PVA    H3644940   4.200   6.978   4.513 -0.7498  0.1629  0.2285
  265PVA    C1944941   4.364   6.870   4.593 -1.0695  0.0952 -0.4156
  265PVA    H3744942   4.465   6.842   4.560  0.6869  1.3523  3.3277
  265PVA    H3844943   4.317   6.775   4.619  0.8600 -0.9639 -0.5818
  265PVA    C2044944   4.393   6.960   4.715 -0.5854  0.1470 -1.2062
  265PVA    H3944945   4.294   6.986   4.754  0.5783  4.7609 -0.7154
  265PVA     O744946   4.450   7.082   4.672 -0.7523 -0.2340 -0.1048
  265PVA    H4044947   4.523   7.106   4.732  0.4528 -2.9447 -0.3584
  265PVA    C2144948   4.482   6.886   4.815  0.8619 -0.0098  0.8098
  265PVA    H4144949   4.556   6.823   4.764  0.2662  0.5358 -0.7712
  265PVA    H4244950   4.417   6.812   4.864  1.4925 -1.5773 -0.6158
  265PVA    C2244951   4.548   6.960   4.923  0.8245 -0.1460  0.5771
  265PVA    H4344952   4.609   7.042   4.883 -0.1207 -0.1749 -0.9944
  265PVA    H4444953   4.474   7.031   4.962  2.4952  1.0323  1.7391
  265PVA    C2344954   4.631   6.880   5.029  0.3930 -0.1857 -0.9382
  265PVA    H4544955   4.561   6.870   5.113 -0.0506  1.2502 -1.1118
  265PVA     O844956   4.654   6.747   4.990 -0.5419 -0.4371 -0.5260
  265PVA    H4644957   4.604   6.710   5.065  0.5018 -1.4773 -0.3172
  265PVA    C2444958   4.764   6.964   5.071 -1.4218 -0.0912  0.4020
  265PVA    H4744959   4.827   6.986   4.984 -0.2733 -2.7731  0.4302
  265PVA    H4844960   4.736   7.063   5.108  3.7905  2.1351 -0.8284
  265PVA    C2544961   4.846   6.900   5.183 -0.1529  0.5646  0.1587
  265PVA    H4944962   4.936   6.856   5.137  1.9915  5.2468 -0.7012
  265PVA    H5044963   4.806   6.817   5.243  6.5460 -1.1729  3.2565
  265PVA    C2644964   4.884   7.004   5.295  0.3857 -0.3526 -0.1121
  265PVA    H5144965   4.930   7.096   5.255 -2.8957  1.4874 -0.0785
  265PVA     O944966   4.760   7.041   5.357  0.2823  0.1499  0.1667
  265PVA    H5244967   4.767   7.040   5.454  0.9959  1.0394  0.1426
  265PVA    C2744968   4.964   6.930   5.401  0.4168 -0.2384 -0.2682
  265PVA    H5344969   4.898   6.859   5.451 -0.2164  0.8963  0.5418
  265PVA    H5444970   4.972   6.986   5.495  1.8201 -2.7391  1.2296
  265PVA    C2844971   5.097   6.854   5.352  0.5833  0.0033  1.5325
  265PVA    H5544972   5.047   6.767   5.305  0.7921 -0.0499  1.4105
  265PVA    H5644973   5.127   6.904   5.259 -3.7154  0.4592  0.1607
  265PVA    C2944974   5.210   6.800   5.438  0.5094 -0.5375  1.0533
  265PVA    H5744975   5.165   6.718   5.495 -2.0393 -0.4568 -0.6612
  265PVA    O1044976   5.237   6.876   5.543 -0.5006  0.4871 -0.2016
  265PVA    H5844977   5.272   6.964   5.523 -0.5957  0.4196 -0.6752
  265PVA    C3044978   5.340   6.765   5.366  0.4823  0.2427 -1.5579
  265PVA    H5944979   5.420   6.826   5.409 -0.8417 -0.2801  1.9812
  265PVA    H6044980   5.325   6.790   5.260 -4.3014  0.8061 -1.0052
  265PVA    C3144981   5.371   6.606   5.372 -0.5805 -0.9825 -0.2154
  265PVA    H6144982   5.375   6.578   5.478 -1.9875  4.1644  1.4964
  265PVA    H6244983   5.289   6.566   5.311 -1.4878  0.7042 -0.1803
  265PVA    C3244984   5.513   6.599   5.315  0.3493 -0.1365 -0.3797
  265PVA    H6344985   5.522   6.670   5.232 -1.6580  0.2409 -0.3280
  265PVA    O1144986   5.605   6.646   5.416  1.2260 -0.3736  0.5935
  265PVA    H6444987   5.617   6.742   5.414 -0.9850  0.0419 -3.4804
  265PVA    C3344988   5.557   6.449   5.290  0.6327  0.4133 -0.1780
  265PVA    H6544989   5.618   6.440   5.199  1.3150 -3.1232  0.4898
  265PVA    H6644990   5.466   6.393   5.266  2.0362 -2.0569 -0.1184
  265PVA    C3444991   5.641   6.382   5.415 -0.9546 -0.6113  1.1144
  265PVA    H6744992   5.736   6.433   5.434 -0.3577 -0.4357 -1.7694
  265PVA    H6844993   5.583   6.388   5.507  0.4954 -0.9777  2.0895
  265PVA    C3544994   5.679   6.232   5.405  0.5569  0.7486  1.4162
  265PVA    H6944995   5.594   6.177   5.361  0.5507  1.8479 -0.0306
  265PVA    O1244996   5.766   6.247   5.295 -0.7043  0.5929 -0.2996
  265PVA    H7044997   5.709   6.301   5.237  2.9318  3.6076 -1.4443
  265PVA    C3644998   5.741   6.161   5.537 -0.0696 -0.1868  0.5285
  265PVA    H7144999   5.692   6.199   5.628  2.2072  0.6424  1.4884
  265PVA    H7245000   5.846   6.188   5.549 -0.0829  0.1491 -0.0853
  265PVA    C3745001   5.741   6.006   5.526 -0.1431  0.5188  0.3323
  265PVA    H7345002   5.642   5.962   5.544  0.1198  0.2430  1.1414
  265PVA    H7445003   5.760   5.978   5.422  2.7586 -1.1460  1.2061
  265PVA    C3845004   5.846   5.925   5.612 -0.6820  0.8265  0.2577
  265PVA    H7545005   5.869   5.992   5.696  2.8049  0.2482 -0.1171
  265PVA    O1345006   5.967   5.918   5.544  0.6549 -0.0174 -0.6025
  265PVA    H7645007   6.032   5.957   5.606  1.5366 -4.0550  1.3362
  265PVA    C3945008   5.806   5.786   5.654  0.1501 -0.7597  0.3351
  265PVA    H7745009   5.786   5.715   5.572  2.6319 -0.7333 -0.3934
  265PVA    H7845010   5.716   5.789   5.715  0.7108 -1.0262  1.1915
  265PVA    C4045011   5.913   5.723   5.757  0.2981  1.0114  0.2284
  265PVA    H7945012   5.915   5.786   5.847 -0.1579  1.3810 -0.0190
  265PVA    H8045013   6.008   5.737   5.704 -1.4296 -0.2560 -3.5289
  265PVA    C4145014   5.884   5.570   5.789  0.3683  0.8299  0.3262
  265PVA    H8145015   5.938   5.533   5.878  0.5284  3.1471  1.2795
  265PVA    O1445016   5.742   5.566   5.814 -0.5407  0.0092 -0.5169
  265PVA    H8245017   5.698   5.576   5.728  1.1270 -0.9450 -1.5363
  265PVA    C4245018   5.922   5.461   5.680 -0.1530 -0.5581 -0.7256
  265PVA    H8345019   5.860   5.487   5.593  1.4014  3.3674 -0.8773
  265PVA    H8445020   6.024   5.482   5.645  0.5316 -1.8250  0.4170
  265PVA    C4345021   5.910   5.318   5.734 -0.3439 -0.3145  0.7023
  265PVA    H8545022   5.813   5.276   5.702 -2.1051  0.6921  4.1561
  265PVA    H8645023   5.896   5.325   5.842 -1.9955  0.3986  0.4767
  265PVA    C4445024   6.034   5.226   5.721  0.8706  0.1863  0.7072
  265PVA    H8745025   6.115   5.276   5.775  0.5982  3.2914 -1.4575
  265PVA    O1545026   6.007   5.095   5.773 -0.6540  0.0456 -0.4593
  265PVA    H8845027   6.096   5.059   5.789 -1.7322 -1.2589  4.2981
  265PVA    C4545028   6.054   5.215   5.571 -0.7205  0.2905 -0.3636
  265PVA    H8945029   6.149   5.267   5.550 -0.1436  0.0787  1.5984
  265PVA    H9045030   5.980   5.272   5.513 -1.1809  3.2810  2.8242
  265PVA    C4645031   6.027   5.087   5.487 -0.4820  0.6004  0.4771
  265PVA    H9145032   6.094   5.004   5.515 -0.7107 -1.2409 -3.6594
  265PVA    H9245033   5.924   5.050   5.493  0.3650 -1.8352  1.4203
  265PVA    C4745034   6.077   5.111   5.347  0.9132  0.5545  0.0248
  265PVA    H9345035   6.010   5.184   5.300  0.9164  0.0504 -0.7788
  265PVA    O1645036   6.220   5.152   5.353  0.1290 -0.4373  0.0879
  265PVA    H9445037   6.273   5.084   5.308 -0.0256 -2.6351  2.9618
  265PVA    C4845038   6.071   4.976   5.260  0.6162  0.2367  0.4991
  265PVA    H9545039   5.979   4.917   5.268 -0.1046  1.3347  0.6409
  265PVA    H9645040   6.162   4.917   5.278  2.1956  3.3073  3.7463
  265PVA    C4945041   6.052   5.012   5.106  0.9797  0.9961  0.1608
  265PVA    H9745042   6.121   5.092   5.078 -0.8669  2.6165 -0.0329
  265PVA    H9845043   5.960   5.071   5.096  1.9350  2.5871  0.4615
  265PVA    C5045044   6.060   4.895   5.004  0.1314 -0.2646  1.0322
  265PVA    H9945045   5.983   4.825   5.040  0.4126 -0.5683  1.0491
  265PVA    O1745046   6.179   4.822   5.030  0.4739  0.1297 -1.3011
  265PVA   H10045047   6.160   4.727   5.025 -1.7952  0.6034 -3.5077
  265PVA    C5145048   6.034   4.940   4.851 -0.0666  0.0487 -1.6572
  265PVA   H10145049   5.949   4.882   4.814  0.5209 -2.5537  0.6901
  265PVA   H10245050   5.992   5.041   4.842  2.5799  1.4766  0.4582
  266PVA     C145051   0.104   5.721   1.007  0.3102 -0.4234 -0.0701
  266PVA     H145052   0.052   5.747   0.914  0.3322  3.2384  0.7945
  266PVA     H245053   0.134   5.616   0.996  2.6549  0.0538  1.1220
  266PVA     C245054   7.762   5.742   1.120 -0.0469 -0.8036 -0.3564
  266PVA     H345055   0.067   5.748   1.203  0.5659  2.3433 -0.9849
  266PVA     O145056   7.674   5.631   1.136 -0.0453  0.2632  0.1765
  266PVA     H445057   7.614   5.628   1.059  0.0244 -0.4916  0.1427
  266PVA     C345058   7.694   5.889   1.115  0.7747 -0.6450 -0.6699
  266PVA     H545059   7.719   5.948   1.026  0.2226  2.0477  0.8314
  266PVA     H645060   7.715   5.955   1.201 -1.8982  2.6825 -2.3246
  266PVA     C445061   7.538   5.889   1.115  0.6394 -1.0044 -0.1086
  266PVA     H745062   7.488   5.837   1.031 -0.5502  2.0953 -1.4684
  266PVA     H845063   7.516   5.844   1.213  0.8300 -0.7818  0.0349
  266PVA     C545064   7.468   6.024   1.120 -0.8614 -0.0685 -0.8621
  266PVA     H945065   7.519   6.096   1.055  0.6309  0.9281  1.2704
  266PVA     O245066   7.485   6.097   1.244  1.4155 -0.6411 -0.5541
  266PVA    H1045067   7.569   6.145   1.255  0.7166  0.2074  1.6858
  266PVA     C645068   7.328   6.037   1.069 -0.0525  0.6129  0.9793
  266PVA    H1145069   7.262   5.956   1.104  1.4293 -2.8898 -3.3560
  266PVA    H1245070   7.289   6.135   1.099  2.7156  1.4818  2.0128
  266PVA     C745071   7.312   6.007   0.920  0.5269 -0.9513 -0.6109
  266PVA    H1345072   7.354   5.911   0.887  1.7650 -0.0016 -1.9051
  266PVA    H1445073   7.372   6.084   0.870  1.9656 -0.0643  2.2427
  266PVA     C845074   7.168   6.041   0.861 -0.7703  0.5782  0.2029
  266PVA    H1545075   7.150   6.146   0.883  3.3179  1.3681  0.4905
  266PVA     O345076   7.074   5.951   0.901 -0.0392  0.1514  0.9359
  266PVA    H1645077   6.989   5.990   0.925 -1.5666 -4.2926  4.0787
  266PVA     C945078   7.174   6.047   0.700 -0.6230  1.2722  0.1939
  266PVA    H1745079   7.200   5.943   0.676 -0.4526  1.0949  1.0844
  266PVA    H1845080   7.246   6.126   0.682 -2.1319  2.9033  1.0093
  266PVA    C1045081   7.054   6.093   0.621 -0.3352  0.1225  1.6965
  266PVA    H1945082   6.959   6.046   0.651 -2.0468  1.5873 -1.0188
  266PVA    H2045083   7.034   6.199   0.638  3.1282  1.3695 -0.8896
  266PVA    C1145084   7.084   6.069   0.466  1.3715  0.0695  0.5434
  266PVA    H2145085   7.181   6.113   0.440  1.1036  1.4853  1.7829
  266PVA     O445086   7.106   5.930   0.430  0.2918  0.4449  0.2996
  266PVA    H2245087   7.029   5.872   0.440 -0.6739  0.2222 -5.1282
  266PVA    C1245088   6.981   6.146   0.375  0.2015  0.8655 -0.1983
  266PVA    H2345089   6.880   6.149   0.417 -0.1731  3.2098 -1.1149
  266PVA    H2445090   7.019   6.248   0.361 -2.5667  1.5803 -4.5959
  266PVA    C1345091   6.972   6.078   0.235 -0.1831  0.7358 -0.3578
  266PVA    H2545092   6.900   5.995   0.245 -1.8274  1.9813 -1.2829
  266PVA    H2645093   7.072   6.049   0.202 -1.5042 -2.9703 -1.6909
  266PVA    C1445094   6.917   6.150   0.109  0.3544 -0.3116 -0.4563
  266PVA    H2745095   6.831   6.092   0.073 -0.8708  0.9464  0.3184
  266PVA     O545096   6.848   6.267   0.153 -0.3251 -0.5744  0.7185
  266PVA    H2845097   6.790   6.225   0.218  0.7896  0.1595  2.2447
  266PVA    C1545098   7.015   6.173   8.080  0.2992 -0.3840  0.0566
  266PVA    H2945099   7.014   6.084   8.016  1.3199  0.5232 -1.2643
  266PVA    H3045100   7.119   6.163   0.016  1.1849  0.6544 -2.2456
  266PVA    C1645101   7.007   6.307   7.999  0.1856  0.2792  0.3993
  266PVA    H3145102   6.959   6.391   8.051 -1.2108  0.8301 -1.6684
  266PVA    H3245103   7.110   6.331   7.971  0.6903 -2.2911 -0.2290
  266PVA    C1745104   6.922   6.282   7.866 -0.2560  0.1617  1.7469
  266PVA    H3345105   6.838   6.212   7.877 -0.7175  0.7227  1.8168
  266PVA     O645106   7.025   6.236   7.773  0.2187  0.5629 -0.2917
  266PVA    H3445107   7.092   6.301   7.746  1.9484 -2.1218 -3.0219
  266PVA    C1845108   6.863   6.418   7.808 -0.8758 -0.4910 -0.1970
  266PVA    H3545109   6.938   6.496   7.787 -1.2946  0.4944  1.7358
  266PVA    H3645110   6.824   6.467   7.898  0.5710  4.2163 -1.8442
  266PVA    C1945111   6.747   6.411   7.706 -0.2045 -1.1006 -0.3963
  266PVA    H3745112   6.792   6.399   7.607 -0.4375 -0.9993 -0.5159
  266PVA    H3845113   6.676   6.329   7.723 -3.0977  0.8861 -1.9715
  266PVA    C2045114   6.652   6.527   7.696 -0.1532 -0.8395  0.9383
  266PVA    H3945115   6.699   6.621   7.664 -0.1690  0.0970  3.4109
  266PVA     O745116   6.594   6.568   7.816  0.5925  0.7165  0.1901
  266PVA    H4045117   6.556   6.485   7.851  0.0452  0.6413 -0.5655
  266PVA    C2145118   6.537   6.509   7.588 -0.1017  1.1831  0.1508
  266PVA    H4145119   6.464   6.588   7.609  0.8883  1.7783  1.5413
  266PVA    H4245120   6.470   6.424   7.605  0.6709  0.8659  1.8287
  266PVA    C2245121   6.582   6.524   7.439  0.6286  0.4867 -0.6716
  266PVA    H4345122   6.648   6.612   7.436 -2.5400  3.0219 -0.9855
  266PVA    H4445123   6.637   6.430   7.426 -1.0862 -0.3820 -2.1246
  266PVA    C2345124   6.472   6.560   7.333  0.3087 -0.2428 -0.0441
  266PVA    H4545125   6.372   6.543   7.374 -0.6672  2.1594 -1.2435
  266PVA     O845126   6.468   6.704   7.327 -0.0849 -0.3739  0.2713
  266PVA    H4645127   6.410   6.730   7.401  0.0685  0.6577  0.0359
  266PVA    C2445128   6.487   6.506   7.194 -0.3888  0.7728  0.5424
  266PVA    H4745129   6.398   6.515   7.131 -2.7997  4.5044  4.0122
  266PVA    H4845130   6.549   6.571   7.131 -0.0939  0.2142  0.2413
  266PVA    C2545131   6.522   6.357   7.183 -0.4885  1.4263  0.7390
  266PVA    H4945132   6.435   6.301   7.148 -2.6474  5.2535 -0.5102
  266PVA    H5045133   6.545   6.297   7.272 -2.2595 -2.3946 -1.1459
  266PVA    C2645134   6.652   6.349   7.096  0.9255  0.3761 -0.4921
  266PVA    H5145135   6.636   6.399   7.000 -1.0026 -0.4951 -0.6615
  266PVA     O945136   6.759   6.407   7.178 -0.0552  0.1590  0.9671
  266PVA    H5245137   6.740   6.502   7.169 -6.8007 -0.4193  3.2188
  266PVA    C2745138   6.696   6.204   7.058  0.1260 -0.5090 -0.0351
  266PVA    H5345139   6.691   6.144   7.150 -3.1311  0.4433  0.5508
  266PVA    H5445140   6.617   6.165   6.992  0.3141 -0.7350 -0.1312
  266PVA    C2845141   6.843   6.183   6.999  0.6108 -0.1696  1.1233
  266PVA    H5545142   6.905   6.273   7.008 -0.5992  1.2208 -2.4185
  266PVA    H5645143   6.870   6.104   7.069  0.9262 -1.7836 -0.7218
  266PVA    C2945144   6.831   6.109   6.854  1.2207  0.4463 -0.2430
  266PVA    H5745145   6.764   6.159   6.783  1.9659 -1.3737 -2.2979
  266PVA    O1045146   6.784   5.972   6.868  0.4068  0.3756 -0.4059
  266PVA    H5845147   6.755   5.975   6.961 -1.4524 -0.6124 -0.9025
  266PVA    C3045148   6.970   6.120   6.779  0.9008  0.2479  0.2676
  266PVA    H5945149   7.013   6.220   6.796 -0.7435  1.6658 -3.0711
  266PVA    H6045150   7.048   6.053   6.817  1.1242 -1.7387 -3.3419
  266PVA    C3145151   6.955   6.096   6.626 -0.8542 -0.0764  0.4461
  266PVA    H6145152   6.882   6.173   6.597  0.7976  2.6890  3.0635
  266PVA    H6245153   6.932   5.991   6.605 -0.8546  0.2825 -1.5191
  266PVA    C3245154   7.084   6.109   6.539  0.5112  0.1706 -0.2010
  266PVA    H6345155   7.156   6.038   6.582 -2.7593 -2.5975  1.3244
  266PVA    O1145156   7.145   6.238   6.547  0.7223  0.8481 -0.0702
  266PVA    H6445157   7.127   6.292   6.469 -2.5908 -0.5667 -0.4544
  266PVA    C3345158   7.049   6.074   6.401 -0.5555 -0.3171  0.2996
  266PVA    H6545159   7.097   6.139   6.326  2.6005 -0.8523  1.6704
  266PVA    H6645160   6.942   6.067   6.379 -0.3282 -0.3608 -0.8829
  266PVA    C3445161   7.093   5.937   6.358  0.0565  0.1850 -0.2312
  266PVA    H6745162   7.192   5.919   6.403  0.0467 -0.6241 -0.5284
  266PVA    H6845163   7.036   5.850   6.393 -3.5438  2.0000 -1.1121
  266PVA    C3545164   7.107   5.932   6.203 -0.0696  0.4164 -0.2061
  266PVA    H6945165   7.197   5.991   6.180 -1.3676  2.6215  0.0927
  266PVA    O1245166   6.988   5.985   6.135 -0.0639 -0.3700  1.0026
  266PVA    H7045167   6.929   6.037   6.191  3.3239  1.4361  3.1940
  266PVA    C3645168   7.141   5.787   6.154 -0.0201 -0.3018 -0.2057
  266PVA    H7145169   7.069   5.721   6.204 -2.0379 -0.7160 -3.3983
  266PVA    H7245170   7.238   5.763   6.199  0.3661  3.5706  1.3889
  266PVA    C3745171   7.157   5.790   6.005  0.6644  1.2097 -0.6154
  266PVA    H7345172   7.197   5.883   5.963 -0.6277  1.1252 -2.1492
  266PVA    H7445173   7.057   5.761   5.971  0.0714 -0.3020  2.1056
  266PVA    C3845174   7.252   5.673   5.953  0.0411 -0.5718 -0.9289
  266PVA    H7545175   7.242   5.583   6.014 -1.5493  0.4387  0.3935
  266PVA    O1345176   7.384   5.720   5.963 -0.0136 -0.3802  0.0748
  266PVA    H7645177   7.442   5.661   6.015  2.5129 -2.3055 -4.4011
  266PVA    C3945178   7.229   5.637   5.807 -0.3357  0.6090 -0.8339
  266PVA    H7745179   7.278   5.717   5.750  0.7966  1.3369  1.0870
  266PVA    H7845180   7.124   5.638   5.773 -1.7507 -1.1560  2.9106
  266PVA    C4045181   7.279   5.492   5.766 -0.2655 -0.3371  0.9682
  266PVA    H7945182   7.389   5.497   5.769 -0.1563 -2.3192  2.2191
  266PVA    H8045183   7.251   5.422   5.846  4.4693 -0.9046  2.4678
  266PVA    C4145184   7.247   5.427   5.624 -0.0178 -0.7547 -0.9533
  266PVA    H8145185   7.284   5.326   5.646  3.5783  0.6673  0.1914
  266PVA    O1445186   7.303   5.503   5.517  0.0387 -0.1218  0.5876
  266PVA    H8245187   7.227   5.537   5.465  0.5241  0.2753  0.1218
  266PVA    C4245188   7.095   5.424   5.605 -1.3030  1.3656 -0.9222
  266PVA    H8345189   7.058   5.367   5.691 -0.4597  0.7805 -0.9380
  266PVA    H8445190   7.067   5.531   5.606  0.6843  1.9250  0.6371
  266PVA    C4345191   7.049   5.357   5.472  0.3824  0.6228  0.1631
  266PVA    H8545192   7.082   5.253   5.463 -0.3908  0.5337 -2.3658
  266PVA    H8645193   7.099   5.393   5.381  1.3846 -0.4959  0.2513
  266PVA    C4445194   6.897   5.344   5.447  0.6495  0.6004 -0.0885
  266PVA    H8745195   6.844   5.432   5.483 -0.2423 -1.1015  3.1615
  266PVA    O1545196   6.853   5.243   5.534 -0.3617 -0.7288 -0.7034
  266PVA    H8845197   6.895   5.269   5.619 -1.6885  2.6378 -0.9343
  266PVA    C4545198   6.867   5.303   5.296  0.1562  0.8207 -0.9790
  266PVA    H8945199   6.931   5.214   5.290 -0.2991  0.4732 -0.7157
  266PVA    H9045200   6.898   5.373   5.217  0.6244 -0.2701 -1.7948
  266PVA    C4645201   6.723   5.276   5.275  0.7108  0.3527  0.4228
  266PVA    H9145202   6.680   5.214   5.355  2.9519 -2.5519 -0.4284
  266PVA    H9245203   6.682   5.377   5.280 -0.3231 -0.0051 -0.3911
  266PVA    C4745204   6.712   5.205   5.129 -0.9197 -0.2195  0.3540
  266PVA    H9345205   6.745   5.102   5.152 -3.9497 -1.6456 -1.1612
  266PVA    O1645206   6.795   5.263   5.018  0.4197 -1.4527 -0.5222
  266PVA    H9445207   6.780   5.213   4.937  1.1875  1.5379 -2.7034
  266PVA    C4845208   6.567   5.188   5.089  0.7501 -0.0740 -0.4136
  266PVA    H9545209   6.503   5.167   5.176 -3.9235 -1.0962 -3.7061
  266PVA    H9645210   6.540   5.290   5.057  1.5129  0.5417  0.8003
  266PVA    C4945211   6.543   5.094   4.969  0.6159  0.3176  1.3019
  266PVA    H9745212   6.455   5.032   4.987 -0.1179  1.0407  0.3002
  266PVA    H9845213   6.631   5.028   4.965  0.1377 -0.3251 -2.8370
  266PVA    C5045214   6.534   5.143   4.820 -0.5935 -0.2697 -0.2195
  266PVA    H9945215   6.450   5.213   4.832 -0.4884 -0.4310  1.9104
  266PVA    O1745216   6.667   5.189   4.785  0.3712 -1.1840 -0.7258
  266PVA   H10045217   6.673   5.282   4.812 -0.9797 -0.7622 -1.8060
  266PVA    C5145218   6.496   5.042   4.701 -1.0751 -1.0653  0.4142
  266PVA   H10145219   6.583   4.976   4.712 -0.5954 -0.5122  0.0337
  266PVA   H10245220   6.512   5.081   4.600  1.9064 -0.5571  0.9640
  267PVA     C145221   0.507   5.950   0.807 -1.2828 -0.5027  0.4067
  267PVA     H145222   0.468   6.031   0.871  3.3015  2.3826 -0.0042
  267PVA     H245223   0.616   5.954   0.817 -1.0945 -0.1750 -1.4703
  267PVA     C245224   0.450   5.967   0.665 -0.0078  0.5700  0.9176
  267PVA     H345225   0.342   5.981   0.669 -0.5948 -2.8329  0.1898
  267PVA     O145226   0.473   5.839   0.605  0.1632 -0.3097  0.0252
  267PVA     H445227   0.544   5.802   0.659 -0.3707 -0.7287  0.4513
  267PVA     C345228   0.503   6.087   0.567 -0.0060 -0.3261  0.5882
  267PVA     H545229   0.612   6.100   0.561 -0.0712 -0.2028 -4.1256
  267PVA     H645230   0.483   6.171   0.635  2.6317  0.3611  0.6202
  267PVA     C445231   0.447   6.141   0.424  1.1952  0.1834 -0.3612
  267PVA     H745232   0.390   6.055   0.387  0.1517  1.1718 -1.0769
  267PVA     H845233   0.376   6.223   0.439  0.0741 -0.7038 -0.6723
  267PVA     C545234   0.522   6.206   0.293  1.8644 -0.0134  0.2243
  267PVA     H945235   0.543   6.124   0.223  0.5467  0.0483 -0.2621
  267PVA     O245236   0.640   6.269   0.331  0.0880 -0.7566 -0.5871
  267PVA    H1045237   0.700   6.248   0.256  1.8848 -0.5412  0.7133
  267PVA     C645238   0.429   6.298   0.203  0.5300 -0.2767  1.7596
  267PVA    H1145239   0.321   6.281   0.211  0.5440 -2.8468 -1.4684
  267PVA    H1245240   0.436   6.395   0.254 -1.7467  0.7290  0.2939
  267PVA     C745241   0.469   6.322   0.047  0.1515 -1.1765 -0.2891
  267PVA    H1345242   0.542   6.243   0.022  2.9949  0.0583  3.1267
  267PVA    H1445243   0.539   6.406   0.057  0.0314 -0.7673 -2.5434
  267PVA     C845244   0.356   6.356   8.021  0.6689 -0.8927 -1.1975
  267PVA    H1545245   0.275   6.282   8.028 -1.4169  1.3798  1.5460
  267PVA     O345246   0.295   6.479   8.049  0.0314 -0.2248  0.3644
  267PVA    H1645247   0.220   6.497   7.990  2.7087  4.8223 -2.1632
  267PVA     C945248   0.400   6.362   7.869 -0.5625 -0.3669 -0.1478
  267PVA    H1745249   0.485   6.297   7.846 -1.5161 -1.3908 -0.8953
  267PVA    H1845250   0.440   6.464   7.873  1.1108 -0.8480 -2.6821
  267PVA    C1045251   0.289   6.363   7.757 -0.3415  0.2754  0.1787
  267PVA    H1945252   0.210   6.291   7.784  0.4497 -1.7756 -2.4884
  267PVA    H2045253   0.253   6.466   7.761 -0.9680  0.0523  3.7514
  267PVA    C1145254   0.322   6.324   7.599  0.0365  0.9152  0.5137
  267PVA    H2145255   0.382   6.410   7.566 -0.5383  1.5821  1.1672
  267PVA     O445256   0.203   6.332   7.515 -0.7790  0.0721 -0.4773
  267PVA    H2245257   0.208   6.415   7.464 -5.3217  0.8785 -0.0842
  267PVA    C1245258   0.395   6.191   7.549  1.6213 -0.6276  0.8220
  267PVA    H2345259   0.477   6.231   7.487  1.1717  1.0734  1.2709
  267PVA    H2445260   0.447   6.144   7.633  3.2881 -0.0029  0.1854
  267PVA    C1345261   0.331   6.082   7.444  0.5374 -0.3816 -0.0490
  267PVA    H2545262   0.324   6.131   7.347  1.9343 -2.8852 -1.5349
  267PVA    H2645263   0.227   6.062   7.471  0.2689 -0.8573 -1.3623
  267PVA    C1445264   0.390   5.930   7.413 -1.0464 -0.4668  0.4126
  267PVA    H2745265   0.482   5.912   7.469 -1.5196 -1.2812  0.9480
  267PVA     O545266   0.419   5.916   7.275 -0.2067 -0.4554  0.1183
  267PVA    H2845267   0.497   5.859   7.265  1.5265  1.9407 -1.0655
  267PVA    C1545268   0.306   5.795   7.456 -0.2965 -0.7718  0.1701
  267PVA    H2945269   0.236   5.752   7.383 -2.0384  3.6829 -1.1548
  267PVA    H3045270   0.223   5.837   7.515  0.4870  0.4295  0.4503
  267PVA    C1645271   0.381   5.677   7.540 -0.0383  1.0956  0.0041
  267PVA    H3145272   0.412   5.596   7.472 -3.4051 -0.1694 -0.1927
  267PVA    H3245273   0.474   5.705   7.590  0.1452 -1.8830  1.5572
  267PVA    C1745274   0.288   5.600   7.662 -0.6049  0.9526  0.2455
  267PVA    H3345275   0.222   5.529   7.612 -0.9901 -0.1293  2.1835
  267PVA     O645276   0.200   5.688   7.720 -0.0736 -0.0518 -0.0627
  267PVA    H3445277   0.150   5.735   7.650  2.9644  1.4722 -1.4012
  267PVA    C1845278   0.362   5.508   7.775 -0.2308  0.1736  0.7147
  267PVA    H3545279   0.368   5.404   7.740  2.9685  1.0561 -1.8646
  267PVA    H3645280   0.469   5.534   7.774 -0.7880  4.1063 -4.8988
  267PVA    C1945281   0.313   5.491   7.924 -0.1535  0.2481 -0.3625
  267PVA    H3745282   0.210   5.451   7.927 -0.2449  0.5250  1.2300
  267PVA    H3845283   0.295   5.597   7.948 -3.2683 -0.3948  0.6497
  267PVA    C2045284   0.406   5.418   8.039  0.0511 -1.1070 -0.3432
  267PVA    H3945285   0.508   5.447   8.014  1.2121 -6.1622 -2.7857
  267PVA     O745286   0.415   5.282   8.014 -0.4155 -0.4003 -0.6494
  267PVA    H4045287   0.396   5.242   0.003 -0.0920 -2.5128 -1.5011
  267PVA    C2145288   0.393   5.449   0.099  0.4583  0.7247 -0.0699
  267PVA    H4145289   0.446   5.373   0.158 -1.6898  0.1537  1.2157
  267PVA    H4245290   0.290   5.435   0.135 -0.8240 -0.6660 -3.7623
  267PVA    C2245291   0.451   5.571   0.179  0.1235 -1.0866 -1.1897
  267PVA    H4345292   0.437   5.672   0.138 -0.3659 -1.6115 -2.3252
  267PVA    H4445293   0.391   5.568   0.271 -1.4352 -3.6501 -2.1843
  267PVA    C2345294   0.595   5.584   0.253  0.3429  0.1015  0.1430
  267PVA    H4545295   0.598   5.517   0.340  2.7565  1.9289  1.5728
  267PVA     O845296   0.694   5.524   0.166 -0.7813 -0.7132  0.1759
  267PVA    H4645297   0.731   5.603   0.124  0.0045  0.0933  2.2503
  267PVA    C2445298   0.634   5.721   0.319 -0.4935  1.1363 -0.0300
  267PVA    H4745299   0.595   5.794   0.247 -0.9638 -0.3563 -1.3367
  267PVA    H4845300   0.562   5.737   0.400  0.9246 -0.2792  1.5933
  267PVA    C2545301   0.781   5.746   0.364  0.0655  0.2444  0.1906
  267PVA    H4945302   0.858   5.694   0.306 -0.4963 -0.9812  0.4986
  267PVA    H5045303   0.799   5.688   0.456 -0.3983 -1.9745 -1.0576
  267PVA    C2645304   0.839   5.893   0.394 -0.7599 -0.4581 -1.3560
  267PVA    H5145305   0.838   5.886   0.504  1.7060  1.0414 -1.1425
  267PVA     O945306   0.759   5.989   0.357  0.5644 -0.4021 -0.4581
  267PVA    H5245307   0.802   6.074   0.377 -0.1048  0.1544 -1.2741
  267PVA    C2745308   0.986   5.928   0.350  0.8047 -0.7721 -0.0291
  267PVA    H5345309   1.045   5.845   0.309  1.2406 -0.9571  0.9417
  267PVA    H5445310   1.030   5.919   0.450 -0.5298 -0.7001  0.5828
  267PVA    C2845311   1.035   6.081   0.287  0.2103  0.9522 -0.3925
  267PVA    H5545312   0.947   6.142   0.263 -0.5062 -0.2861 -1.0470
  267PVA    H5645313   1.076   6.116   0.382  4.2802 -1.5813 -0.9738
  267PVA    C2945314   1.150   6.104   0.176  0.7847 -0.0493  0.3886
  267PVA    H5745315   1.215   6.017   0.163 -1.1574 -1.7428  1.5567
  267PVA    O1045316   1.231   6.215   0.233 -0.1032 -0.7011 -0.9488
  267PVA    H5845317   1.303   6.216   0.167  3.0039 -1.9100  2.1119
  267PVA    C3045318   1.116   6.159   0.031 -0.5838  0.8455 -0.0358
  267PVA    H5945319   1.030   6.228   0.035 -2.2265 -0.9005 -2.2019
  267PVA    H6045320   1.195   6.227   8.094  1.9180 -2.9560 -2.7200
  267PVA    C3145321   1.104   6.064   7.991 -1.4077 -0.5228 -0.1960
  267PVA    H6145322   1.020   5.995   8.010  0.5019 -3.5817 -2.0066
  267PVA    H6245323   1.189   5.995   7.993  0.1958  1.3278 -0.9319
  267PVA    C3245324   1.088   6.081   7.839 -0.3546 -0.4773 -0.1693
  267PVA    H6345325   1.184   6.056   7.793  0.1820  1.0028  0.0799
  267PVA    O1145326   1.094   6.221   7.810 -0.7355 -0.6518 -0.3465
  267PVA    H6445327   1.003   6.254   7.802 -0.7747  0.5394  3.3289
  267PVA    C3345328   0.972   6.005   7.760  0.3085  0.1813  0.0502
  267PVA    H6545329   0.934   5.923   7.823  1.4227 -2.4165 -2.4499
  267PVA    H6645330   1.024   5.951   7.680  2.7162 -0.0389  1.6708
  267PVA    C3445331   0.840   6.080   7.702  0.2675  0.3557  0.0891
  267PVA    H6745332   0.828   6.164   7.771 -2.6757 -1.2251  1.7437
  267PVA    H6845333   0.887   6.123   7.613  1.4726  1.7941  1.3680
  267PVA    C3545334   0.696   6.007   7.665 -1.2681 -0.4908 -0.1085
  267PVA    H6945335   0.658   6.076   7.589  0.1280  1.7745  1.1180
  267PVA    O1245336   0.716   5.881   7.614 -0.2070  0.2291  0.3110
  267PVA    H7045337   0.657   5.832   7.674 -4.3197 -0.2293 -3.5739
  267PVA    C3645338   0.581   5.998   7.770  0.2820 -0.6180  0.7944
  267PVA    H7145339   0.634   5.943   7.849  0.8399 -2.0352 -0.5047
  267PVA    H7245340   0.575   6.098   7.813  1.2271 -0.2916  0.2025
  267PVA    C3745341   0.422   5.938   7.751 -0.0415  0.4955 -0.7059
  267PVA    H7345342   0.413   5.833   7.779  2.4900  0.4418  0.1348
  267PVA    H7445343   0.405   5.918   7.644 -4.1686  2.1760 -0.5569
  267PVA    C3845344   0.296   6.012   7.802  0.1286 -0.0287 -0.5993
  267PVA    H7545345   0.329   6.070   7.889 -3.2722 -3.3800  3.3595
  267PVA    O1345346   0.223   5.914   7.886 -0.6970 -0.5472  0.1201
  267PVA    H7645347   0.175   5.850   7.831 -3.0237 -2.2448  3.7470
  267PVA    C3945348   0.171   6.048   7.716  0.9147  0.0718  0.5206
  267PVA    H7745349   0.139   5.962   7.655 -2.2572  2.2384 -1.1052
  267PVA    H7845350   0.196   6.133   7.652  0.6780  2.1365  3.0390
  267PVA    C4045351   0.041   6.105   7.762 -0.2136 -0.5685 -0.2422
  267PVA    H7945352   7.739   6.024   7.792  1.4025 -1.7300  0.4371
  267PVA    H8045353   0.055   6.160   7.855  0.6883 -2.6425  0.9251
  267PVA    C4145354   7.722   6.211   7.673 -0.4378  0.3981 -1.4380
  267PVA    H8145355   7.764   6.312   7.686 -1.0449  0.4345  0.6478
  267PVA    O1445356   7.728   6.180   7.541 -0.0302  0.0383 -0.4133
  267PVA    H8245357   0.050   6.202   7.503  0.8009 -1.5114  0.4832
  267PVA    C4245358   7.579   6.258   7.730  0.5646  0.6013  0.5947
  267PVA    H8345359   7.575   6.248   7.840 -0.1454  7.3481  1.5987
  267PVA    H8445360   7.520   6.184   7.675  0.2724  1.7689 -0.6902
  267PVA    C4345361   7.524   6.393   7.669  0.6465  0.6471 -1.0834
  267PVA    H8545362   7.581   6.421   7.580  0.3002 -3.1579 -2.7039
  267PVA    H8645363   7.557   6.467   7.742  2.1456  2.0253 -3.0464
  267PVA    C4445364   7.358   6.392   7.639 -0.5317 -0.1614  0.6668
  267PVA    H8745365   7.343   6.339   7.544  3.5708  1.3426 -1.0608
  267PVA    O1545366   7.302   6.325   7.750 -0.0687  0.5002 -0.3834
  267PVA    H8845367   7.354   6.255   7.794 -2.4772 -0.7346  0.7626
  267PVA    C4545368   7.304   6.543   7.603 -0.4576 -0.7636  0.1215
  267PVA    H8945369   7.367   6.590   7.526 -0.8248  0.0163  0.2861
  267PVA    H9045370   7.329   6.616   7.682 -0.5829 -0.0092 -0.5225
  267PVA    C4645371   7.148   6.567   7.554  0.5566  0.5189  0.1473
  267PVA    H9145372   7.118   6.496   7.476  1.1893  1.9280 -1.4250
  267PVA    H9245373   7.089   6.555   7.646 -2.1415  2.0653 -1.2372
  267PVA    C4745374   7.105   6.705   7.505  0.1898 -0.3967  0.9618
  267PVA    H9345375   7.118   6.751   7.603  3.2696  0.9903  0.0492
  267PVA    O1645376   7.205   6.749   7.411  0.1597 -0.6611  0.0468
  267PVA    H9445377   7.150   6.732   7.332 -3.3538 -0.0735  2.1279
  267PVA    C4845378   6.956   6.719   7.455  0.0193  0.4370 -0.7396
  267PVA    H9545379   6.941   6.647   7.374 -1.6204  0.6001 -0.6230
  267PVA    H9645380   6.901   6.689   7.545 -1.2915  2.6251 -0.7203
  267PVA    C4945381   6.899   6.868   7.410 -1.3927  0.3282  0.0613
  267PVA    H9745382   6.969   6.910   7.338  1.9308  2.7630  4.2240
  267PVA    H9845383   6.919   6.946   7.485  3.2402 -0.4705 -0.0782
  267PVA    C5045384   6.758   6.884   7.355  0.2914 -0.0399 -0.2927
  267PVA    H9945385   6.703   6.812   7.416  1.3824 -0.0337  0.7205
  267PVA    O1745386   6.744   6.851   7.216 -0.6277 -0.4493 -0.4486
  267PVA   H10045387   6.672   6.787   7.208  0.8073 -2.4711  1.5388
  267PVA    C5145388   6.674   7.022   7.372  0.6862 -0.5081 -0.1578
  267PVA   H10145389   6.645   7.015   7.477 -5.1148 -0.3334 -1.4135
  267PVA   H10245390   6.739   7.105   7.341  1.0408  0.1172  2.0995
  268PVA     C145391   5.894   4.718   3.958 -0.6948  0.6278 -0.4332
  268PVA     H145392   5.842   4.694   3.865  0.5027  2.0931 -1.5063
  268PVA     H245393   5.816   4.767   4.018 -1.9117 -2.2124  0.4759
  268PVA     C245394   5.933   4.592   4.029  0.0626 -0.8375  0.1940
  268PVA     H345395   6.003   4.546   3.958  3.4518  3.2370  0.4832
  268PVA     O145396   6.002   4.643   4.135  0.6691 -0.2990 -0.4712
  268PVA     H445397   6.051   4.719   4.097 -2.6697  1.1338 -2.3130
  268PVA     C345398   5.805   4.506   4.067 -0.5972  0.4598  0.0125
  268PVA     H545399   5.742   4.496   3.979 -0.7184  1.1546  0.0173
  268PVA     H645400   5.752   4.569   4.139  1.4981  0.2127  1.8994
  268PVA     C445401   5.824   4.368   4.136 -0.5136  0.1590  0.3743
  268PVA     H745402   5.870   4.298   4.066  0.2566  1.6244 -0.6516
  268PVA     H845403   5.882   4.382   4.228  1.6902 -0.0870 -0.9056
  268PVA     C545404   5.699   4.287   4.156  0.3095 -0.0052 -0.5733
  268PVA     H945405   5.631   4.328   4.230  0.9995 -0.8364  0.5603
  268PVA     O245406   5.641   4.280   4.028 -0.0026 -0.1211  0.9687
  268PVA    H1045407   5.623   4.185   4.014 -0.5677 -0.1542  1.7940
  268PVA     C645408   5.724   4.136   4.192  0.4540  1.1983  0.8167
  268PVA    H1145409   5.807   4.140   4.263  1.4225  1.4529 -0.3012
  268PVA    H1245410   5.754   4.082   4.101  1.9233  4.8539 -1.0793
  268PVA     C745411   5.609   4.065   4.261 -0.2589 -0.3088  0.0353
  268PVA    H1345412   5.519   4.082   4.201  0.2526 -1.8771 -1.2649
  268PVA    H1445413   5.596   4.114   4.358  1.3370  1.2888 -0.4965
  268PVA     C845414   5.621   3.905   4.279 -1.1160  0.0192 -0.8087
  268PVA    H1545415   5.589   3.838   4.198  0.3942 -0.3959 -1.0842
  268PVA     O345416   5.760   3.874   4.313  0.1194  0.4955  0.3656
  268PVA    H1645417   5.756   3.788   4.359  4.2588 -2.8372 -4.5082
  268PVA     C945418   5.539   3.853   4.407  0.0095 -0.0571  0.6576
  268PVA    H1745419   5.440   3.900   4.405 -0.4095 -0.7256  2.7584
  268PVA    H1845420   5.586   3.879   4.503 -2.5607 -1.2407  2.3594
  268PVA    C1045421   5.520   3.700   4.412  0.7165  0.3672  0.4765
  268PVA    H1945422   5.485   3.664   4.315  1.1572 -0.9350  0.7879
  268PVA    H2045423   5.615   3.650   4.432  1.4545  0.6970 -1.8700
  268PVA    C1145424   5.411   3.647   4.515  0.1868 -0.0064  0.4366
  268PVA    H2145425   5.319   3.703   4.498  1.5702  2.5353  0.7538
  268PVA     O445426   5.452   3.668   4.642 -0.0027  0.1663  0.6048
  268PVA    H2245427   5.443   3.577   4.676  0.0409  0.8812  2.6730
  268PVA    C1245428   5.380   3.497   4.508  0.8589 -0.5628  0.4354
  268PVA    H2345429   5.478   3.449   4.513  0.4548 -1.3979  0.6664
  268PVA    H2445430   5.330   3.482   4.411 -1.7705  1.5195  1.3491
  268PVA    C1345431   5.272   3.437   4.614 -0.5215  0.7647  0.5444
  268PVA    H2545432   5.168   3.459   4.585 -0.2258  1.5033  0.0072
  268PVA    H2645433   5.280   3.485   4.712  3.7499 -1.3883  1.4934
  268PVA    C1445434   5.264   3.280   4.641  0.0474  0.4346  0.4249
  268PVA    H2745435   5.326   3.233   4.564 -1.3624 -1.4260  0.3447
  268PVA     O545436   5.342   3.255   4.758  0.1875  0.3426  0.9281
  268PVA    H2845437   5.434   3.239   4.732  0.6358  0.0064  2.6255
  268PVA    C1545438   5.122   3.211   4.670  0.4948 -0.0709 -0.4402
  268PVA    H2945439   5.053   3.215   4.585 -0.1360 -0.2404  0.0558
  268PVA    H3045440   5.073   3.269   4.749  2.7860  2.6492 -0.8252
  268PVA    C1645441   5.139   3.063   4.722  1.0558 -0.4619  1.1527
  268PVA    H3145442   5.180   2.993   4.647  0.0828 -0.5534  0.6850
  268PVA    H3245443   5.211   3.060   4.804  3.8858  2.6230 -0.9717
  268PVA    C1745444   5.003   2.982   4.778 -0.1071 -0.1226 -0.9760
  268PVA    H3345445   4.966   3.035   4.867  0.4093 -4.4732  2.1787
  268PVA     O645446   4.907   2.996   4.674  0.6773  0.2232  0.3023
  268PVA    H3445447   4.816   3.003   4.707  1.9669 -0.3513  4.7601
  268PVA    C1845448   5.027   2.830   4.822 -0.0768  0.3315 -0.6786
  268PVA    H3545449   5.091   2.772   4.755 -1.6105 -0.7406 -1.2704
  268PVA    H3645450   5.094   2.835   4.909  0.2738  3.1040 -1.0388
  268PVA    C1945451   4.908   2.740   4.853  0.5425 -0.0997  0.0504
  268PVA    H3745452   4.856   2.801   4.928  0.3999  2.8686 -2.2652
  268PVA    H3845453   4.829   2.723   4.779 -0.2473 -1.3898  1.1442
  268PVA    C2045454   4.942   2.593   4.906  0.0508  0.8755 -0.2085
  268PVA    H3945455   5.015   2.581   4.987  1.3625 -1.9179 -1.6666
  268PVA     O745456   4.995   2.525   4.794  0.1124 -0.8629  0.1024
  268PVA    H4045457   4.925   2.522   4.727 -2.0271  0.3324  2.1553
  268PVA    C2145458   4.815   2.505   4.953  0.1742 -0.1448 -0.1444
  268PVA    H4145459   4.767   2.462   4.864  0.9494 -1.5013  0.0609
  268PVA    H4245460   4.741   2.568   5.003  1.1733  1.5953 -0.7530
  268PVA    C2245461   4.865   2.395   5.055  0.6182  1.0951 -0.8201
  268PVA    H4345462   4.966   2.366   5.025 -1.0725 -0.6500 -5.7636
  268PVA    H4445463   4.883   2.443   5.152 -0.4628 -1.1685  0.5865
  268PVA    C2345464   4.786   2.272   5.058 -0.2620 -0.0194 -1.0083
  268PVA    H4545465   4.677   2.278   5.065 -0.1983 -0.4295  0.7184
  268PVA     O845466   4.798   2.201   4.931  1.1623  0.0824  1.4929
  268PVA    H4645467   4.892   2.178   4.930  0.2031 -4.8157  1.9144
  268PVA    C2445468   4.828   2.180   5.177  0.8167  0.6914  0.0402
  268PVA    H4745469   4.740   2.174   5.243 -0.4738  1.4052 -1.5353
  268PVA    H4845470   4.910   2.229   5.231  2.7654 -2.8475  0.6166
  268PVA    C2545471   4.881   2.026   5.156 -0.0065  0.0472  0.6782
  268PVA    H4945472   4.952   2.033   5.073  0.0270 -1.5830  0.5428
  268PVA    H5045473   4.795   1.961   5.136  1.3935 -1.2931 -1.3705
  268PVA    C2645474   4.957   1.968   5.285 -0.2024 -0.1884  0.9003
  268PVA    H5145475   4.911   2.008   5.376 -0.0624  2.0652  0.0584
  268PVA     O945476   5.096   2.011   5.271 -0.2982  0.7449 -0.0942
  268PVA    H5245477   5.121   2.001   5.364  0.0089  1.5844 -0.0780
  268PVA    C2745478   4.968   1.809   5.295  0.3292 -0.0780 -0.5630
  268PVA    H5345479   5.015   1.772   5.203  0.0328 -4.0801  0.6834
  268PVA    H5445480   4.870   1.762   5.307  1.2310 -1.6201  1.4877
  268PVA    C2845481   5.067   1.757   5.409 -0.4754  0.4217  0.9274
  268PVA    H5545482   5.168   1.783   5.376 -0.3558 -2.6972 -1.6207
  268PVA    H5645483   5.050   1.795   5.511 -0.2501  0.1813  1.0564
  268PVA    C2945484   5.048   1.598   5.435 -0.1730 -0.3650 -1.6810
  268PVA    H5745485   5.044   1.545   5.338  0.2682 -3.6250 -0.0623
  268PVA    O1045486   4.923   1.592   5.495  0.2554  0.5592  0.3984
  268PVA    H5845487   4.933   1.526   5.566  0.6006  2.0774  1.8260
  268PVA    C3045488   5.171   1.532   5.521 -1.2259  1.2992 -0.9423
  268PVA    H5945489   5.264   1.556   5.467  0.8322  1.8570  2.5334
  268PVA    H6045490   5.174   1.589   5.615 -5.7254  0.5765 -0.1361
  268PVA    C3145491   5.137   1.391   5.577 -0.4107  0.4669  0.7102
  268PVA    H6145492   5.097   1.325   5.499 -0.5904  0.1854  1.0363
  268PVA    H6245493   5.057   1.402   5.652  2.1849 -3.8969  4.6750
  268PVA    C3245494   5.265   1.329   5.644 -0.2217 -0.5398  0.2696
  268PVA    H6345495   5.281   1.385   5.737 -1.5357 -0.8956  0.7354
  268PVA    O1145496   5.391   1.325   5.565 -0.4568 -0.2660 -0.2161
  268PVA    H6445497   5.452   1.380   5.618 -2.5512  2.7534 -0.7200
  268PVA    C3345498   5.240   1.180   5.686 -0.3814 -0.3411  1.1129
  268PVA    H6545499   5.140   1.164   5.727 -0.3939  1.9095  2.0961
  268PVA    H6645500   5.254   1.116   5.598 -0.1809 -0.8567  1.5142
  268PVA    C3445501   5.333   1.135   5.802 -0.7462 -0.5780  1.1332
  268PVA    H6745502   5.429   1.181   5.775 -1.0790 -0.3634  0.3082
  268PVA    H6845503   5.288   1.175   5.894 -2.2428  1.7268 -0.5121
  268PVA    C3545504   5.363   0.974   5.832  0.7197 -0.3373  0.5511
  268PVA    H6945505   5.265   0.927   5.845  1.0043 -1.5357 -1.3085
  268PVA    O1245506   5.428   0.905   5.725  0.4212  0.2799 -0.2077
  268PVA    H7045507   5.525   0.901   5.734  1.0259 -4.0381 -4.6555
  268PVA    C3645508   5.427   0.956   5.964  0.4666 -0.9218 -0.5875
  268PVA    H7145509   5.510   1.025   5.988  0.5463 -1.6656  1.5161
  268PVA    H7245510   5.354   0.996   6.035  2.4376  1.6033  0.1876
  268PVA    C3745511   5.471   0.809   6.028  0.0151 -0.0470  0.5070
  268PVA    H7345512   5.538   0.759   5.957 -0.5232  1.3557 -1.0591
  268PVA    H7445513   5.386   0.741   6.023 -1.7273  2.1271 -1.7044
  268PVA    C3845514   5.569   0.801   6.149 -0.1532 -0.7205  0.4156
  268PVA    H7545515   5.673   0.835   6.146  0.2002 -1.4482  2.6593
  268PVA    O1345516   5.508   0.874   6.253 -0.9216  1.5562 -0.0652
  268PVA    H7645517   5.558   0.958   6.244  0.8864  0.3994 -1.5443
  268PVA    C3945518   5.582   0.654   6.208 -0.4197  0.8427  1.1368
  268PVA    H7745519   5.605   0.578   6.132  4.4542  2.0253  1.1242
  268PVA    H7845520   5.486   0.624   6.252 -1.1123  1.3554 -0.0092
  268PVA    C4045521   5.691   0.643   6.329 -0.2121 -0.9637 -0.3010
  268PVA    H7945522   5.786   0.678   6.286  0.2414 -2.9075 -0.9950
  268PVA    H8045523   5.669   0.709   6.414 -0.6085 -0.1190 -1.0420
  268PVA    C4145524   5.719   0.508   6.397  0.4859 -0.7831  0.2151
  268PVA    H8145525   5.747   0.432   6.323 -0.1631 -1.0902  0.2757
  268PVA    O1445526   5.599   0.463   6.456  0.6042 -0.4651 -0.1323
  268PVA    H8245527   5.574   0.394   6.393  0.6459  0.2946 -1.0029
  268PVA    C4245528   5.830   0.501   6.492 -0.0633 -0.7485 -0.1556
  268PVA    H8345529   5.911   0.560   6.447 -0.8356  0.0792 -0.4863
  268PVA    H8445530   5.796   0.569   6.571 -0.6234 -5.5730  4.3683
  268PVA    C4345531   5.874   0.354   6.541  0.1719  0.9403  1.0856
  268PVA    H8545532   5.790   0.286   6.557  1.5837 -1.3719 -0.6291
  268PVA    H8645533   5.949   0.318   6.470  1.8983  3.2292  1.5979
  268PVA    C4445534   5.963   0.354   6.666  1.4500 -0.0421 -0.0398
  268PVA    H8745535   6.066   0.389   6.657  2.8875 -4.1428 -1.7730
  268PVA    O1545536   5.895   0.449   6.751 -0.6673 -0.8502 -0.1060
  268PVA    H8845537   5.897   0.528   6.694  2.3119 -1.7837 -1.5436
  268PVA    C4545538   5.967   0.201   6.720 -0.5839  0.1516 -0.3942
  268PVA    H8945539   5.879   0.147   6.682  1.6587 -0.9254 -4.8007
  268PVA    H9045540   6.042   0.158   6.652  0.3700  0.2654  0.5533
  268PVA    C4645541   6.011   0.162   6.864 -0.5281  0.5348 -0.6906
  268PVA    H9145542   6.087   0.227   6.908 -0.4609 -1.1144  1.8702
  268PVA    H9245543   5.922   0.163   6.928 -0.9739  2.5933 -1.2954
  268PVA    C4745544   6.050   0.012   6.881  1.1354 -0.1524 -0.5137
  268PVA    H9345545   5.986   7.619   6.835 -0.0584  0.1044  0.6642
  268PVA    O1645546   6.183   0.006   6.826 -0.2002  0.0714 -0.4650
  268PVA    H9445547   6.223   0.094   6.836  2.2344 -0.8759 -1.2201
  268PVA    C4845548   6.071   7.643   7.036 -0.1440 -0.8788 -0.2865
  268PVA    H9545549   5.974   7.667   7.082  0.2635 -1.5951  0.9922
  268PVA    H9645550   6.154   0.008   7.088  1.3099 -1.0705 -2.3007
  268PVA    C4945551   6.114   7.492   7.053  0.0728  0.2887 -0.3342
  268PVA    H9745552   6.204   7.479   6.991  1.1815 -0.5716  1.3827
  268PVA    H9845553   6.044   7.426   7.000 -1.8761 -3.1090  5.5685
  268PVA    C5045554   6.155   7.427   7.190 -0.9224 -0.3640 -0.5311
  268PVA    H9945555   6.125   7.506   7.260 -1.6638 -1.4127  0.3810
  268PVA    O1745556   6.068   7.313   7.210 -0.0747 -1.1169  0.4028
  268PVA   H10045557   6.126   7.237   7.193  0.8606 -0.0121 -1.7042
  268PVA    C5145558   6.307   7.392   7.222 -0.3756  0.3548 -0.0100
  268PVA   H10145559   6.358   7.394   7.125 -1.8631 -2.9733 -1.0209
  268PVA   H10245560   6.342   7.477   7.282  2.0131  2.4800 -3.9762
  269PVA     C145561   6.064   5.156   3.727 -0.0687  0.7065  0.2107
  269PVA     H145562   6.085   5.104   3.633  7.0655 -1.1721  2.2178
  269PVA     H245563   5.957   5.183   3.725 -1.0140 -2.6226 -1.4928
  269PVA     C245564   6.157   5.290   3.741  0.2895  1.0672 -0.1179
  269PVA     H345565   6.261   5.258   3.759  0.5935  0.8284 -2.1045
  269PVA     O145566   6.122   5.371   3.850 -0.1251  0.4571  0.6336
  269PVA     H445567   6.101   5.303   3.916 -2.1475  1.8319  1.5238
  269PVA     C345568   6.154   5.368   3.608 -1.3202 -1.4076  0.1920
  269PVA     H545569   6.052   5.398   3.582  0.0231  2.5014 -1.2832
  269PVA     H645570   6.190   5.301   3.529 -2.7161 -1.4247 -0.4501
  269PVA     C445571   6.239   5.506   3.607  0.9640  1.0041 -0.3350
  269PVA     H745572   6.250   5.539   3.712  0.2971 -0.3545  0.1830
  269PVA     H845573   6.336   5.467   3.575  1.3375 -2.6219  4.1339
  269PVA     C545574   6.206   5.629   3.520  0.3014 -1.0238 -0.2137
  269PVA     H945575   6.260   5.594   3.431  3.1740 -1.5384  1.5723
  269PVA     O245576   6.068   5.646   3.509 -0.2346 -0.7793 -0.1847
  269PVA    H1045577   6.047   5.636   3.414 -2.0163  0.6093  0.0213
  269PVA     C645578   6.270   5.763   3.591 -0.8435 -0.4373 -0.1101
  269PVA    H1145579   6.224   5.788   3.687 -1.5215 -0.9195 -0.3018
  269PVA    H1245580   6.379   5.754   3.579 -1.0299 -1.1707 -1.3878
  269PVA     C745581   6.234   5.888   3.504 -0.8595 -0.6209 -0.8638
  269PVA    H1345582   6.268   5.872   3.401 -1.9112 -2.3040 -0.9931
  269PVA    H1445583   6.129   5.874   3.476 -0.9852 -4.9040  0.9803
  269PVA     C845584   6.279   6.028   3.558  0.0034 -0.1855 -0.2685
  269PVA    H1545585   6.384   6.030   3.529  0.5147 -2.2506  1.1905
  269PVA     O345586   6.264   6.050   3.695 -0.5520  1.7640 -0.2191
  269PVA    H1645587   6.178   6.095   3.703 -0.7873  1.3530 -0.4264
  269PVA     C945588   6.225   6.148   3.474 -0.4516  0.1009 -0.0040
  269PVA    H1745589   6.120   6.173   3.494  0.3808  3.4061  0.8018
  269PVA    H1845590   6.213   6.122   3.368  0.0305 -0.4537  0.0668
  269PVA    C1045591   6.322   6.274   3.474  0.0467 -0.0070  0.1436
  269PVA    H1945592   6.350   6.284   3.579 -1.1732 -2.2602  0.7529
  269PVA    H2045593   6.425   6.256   3.442  0.4908  1.4387  0.6832
  269PVA    C1145594   6.274   6.413   3.420  0.3878  0.5362 -0.1896
  269PVA    H2145595   6.231   6.383   3.323  1.5157 -1.1048 -0.2237
  269PVA     O445596   6.170   6.453   3.510 -0.3253  0.8175  0.1886
  269PVA    H2245597   6.082   6.449   3.469  1.0500  3.3301 -3.4439
  269PVA    C1245598   6.378   6.528   3.404  0.1536 -1.2849  0.1718
  269PVA    H2345599   6.443   6.521   3.492 -1.0159  1.1326  1.3330
  269PVA    H2445600   6.425   6.514   3.306 -0.9088 -0.5447 -0.4721
  269PVA    C1345601   6.323   6.676   3.404  0.7620  1.0679 -0.3839
  269PVA    H2545602   6.283   6.680   3.506  0.1986  1.0651 -0.6045
  269PVA    H2645603   6.225   6.696   3.359 -1.6298  0.2351  3.8737
  269PVA    C1445604   6.410   6.813   3.398 -0.2113 -0.9443  0.6130
  269PVA    H2745605   6.349   6.902   3.418 -0.7038 -1.2827  0.6228
  269PVA     O545606   6.528   6.810   3.490 -0.7162 -0.1907 -0.2992
  269PVA    H2845607   6.494   6.761   3.567 -1.9651 -0.9046 -1.2632
  269PVA    C1545608   6.462   6.859   3.255 -0.3852 -0.4304  0.1755
  269PVA    H2945609   6.377   6.837   3.188 -0.6543  2.2390 -0.4711
  269PVA    H3045610   6.544   6.798   3.216 -1.3883 -0.3362 -2.3206
  269PVA    C1645611   6.505   7.016   3.238 -0.7626  0.3305 -0.1551
  269PVA    H3145612   6.410   7.071   3.249 -3.2542 -3.5057 -0.5172
  269PVA    H3245613   6.553   7.030   3.336  2.0561  0.3249 -1.4599
  269PVA    C1745614   6.585   7.058   3.116 -0.3476 -0.2152  0.9198
  269PVA    H3345615   6.656   6.978   3.088 -0.7219 -0.3509  0.3343
  269PVA     O645616   6.483   7.049   3.010  0.2299 -0.9021 -0.2743
  269PVA    H3445617   6.534   7.062   2.928 -1.2272  0.3654 -1.0410
  269PVA    C1845618   6.660   7.205   3.101  0.9359 -0.5755 -0.0319
  269PVA    H3545619   6.619   7.289   3.158  0.0348  0.7224 -2.4632
  269PVA    H3645620   6.756   7.197   3.154 -0.0539  1.8296  2.3079
  269PVA    C1945621   6.709   7.218   2.957 -0.2639  0.5641 -0.4049
  269PVA    H3745622   6.639   7.184   2.880  0.6170 -1.5306 -0.3230
  269PVA    H3845623   6.788   7.143   2.948 -0.6111  0.3266 -1.5293
  269PVA    C2045624   6.786   7.339   2.892 -0.5621  1.0353  0.0733
  269PVA    H3945625   6.881   7.296   2.859 -1.6591 -1.4587 -0.0401
  269PVA     O745626   6.815   7.440   2.987  0.1189 -0.6721 -0.1898
  269PVA    H4045627   6.819   7.387   3.067  2.4921 -1.5128 -0.7853
  269PVA    C2145628   6.728   7.400   2.754 -0.5907  0.3986 -0.1048
  269PVA    H4145629   6.622   7.428   2.765 -1.6629 -2.4347 -2.1340
  269PVA    H4245630   6.727   7.318   2.681  2.3676 -0.9871  1.2529
  269PVA    C2245631   6.798   7.519   2.682  0.2812 -0.1514  0.0049
  269PVA    H4345632   6.781   7.601   2.753  0.9006 -0.3057  0.3445
  269PVA    H4445633   6.899   7.477   2.670 -0.6596 -3.1081  1.4006
  269PVA    C2345634   6.754   7.559   2.540 -0.0965 -0.2414  0.1145
  269PVA    H4545635   6.654   7.601   2.562  1.0643  0.8588  4.1269
  269PVA     O845636   6.746   7.440   2.458 -0.5119 -0.6888 -1.0861
  269PVA    H4645637   6.828   7.388   2.462 -0.6703 -0.8497  0.9610
  269PVA    C2445638   6.814   0.001   2.460  0.1334  0.2581 -0.0204
  269PVA    H4745639   6.826   0.098   2.510  2.4449  1.2533 -2.2842
  269PVA    H4845640   6.920   7.657   2.463 -0.2553 -1.2924 -0.3974
  269PVA    C2545641   6.757   0.031   2.310 -0.5989  0.3257  0.2857
  269PVA    H4945642   6.650   0.006   2.310 -0.6005  0.2897  1.6858
  269PVA    H5045643   6.798   7.638   2.245  1.5197 -1.0612  3.0763
  269PVA    C2645644   6.776   0.179   2.244  1.0054  0.4979 -0.6935
  269PVA    H5145645   6.879   0.196   2.278 -0.0247  0.9051  2.6370
  269PVA     O945646   6.700   0.273   2.306  0.3370 -0.2196  0.7372
  269PVA    H5245647   6.612   0.242   2.336  0.5312 -0.1771  1.3650
  269PVA    C2745648   6.778   0.206   2.087 -0.1278  0.1085 -0.1208
  269PVA    H5345649   6.701   0.153   2.030 -1.0737 -0.6993  1.8143
  269PVA    H5445650   6.876   0.164   2.061  0.6281  0.1072  2.4565
  269PVA    C2845651   6.791   0.350   2.017  0.2691 -0.3633 -0.5410
  269PVA    H5545652   6.686   0.382   2.021  0.2974 -0.0694 -1.8423
  269PVA    H5645653   6.852   0.420   2.075  2.4019 -2.9262  0.5000
  269PVA    C2945654   6.836   0.341   1.867 -0.5347  0.6138  0.4221
  269PVA    H5745655   6.920   0.270   1.869  1.7812  3.0635 -1.6429
  269PVA    O1045656   6.726   0.288   1.799  0.6242 -1.3151  0.5286
  269PVA    H5845657   6.660   0.358   1.790  1.2385 -0.6454  1.1632
  269PVA    C3045658   6.891   0.462   1.791 -0.3671  0.5184  0.2107
  269PVA    H5945659   6.804   0.522   1.761 -0.2355  2.0730  2.7176
  269PVA    H6045660   6.940   0.523   1.867 -0.6935  0.8390  0.1644
  269PVA    C3145661   6.970   0.441   1.664  0.3624  0.9116  0.3976
  269PVA    H6145662   7.073   0.408   1.683  0.6490 -0.2291 -2.4965
  269PVA    H6245663   6.931   0.343   1.633 -1.2914  0.7930  2.6554
  269PVA    C3245664   6.976   0.552   1.552  0.0592 -0.5639  0.8995
  269PVA    H6345665   6.882   0.603   1.530  2.3700  4.3719  1.2389
  269PVA    O1145666   7.059   0.657   1.602 -0.5830  0.2261 -0.6180
  269PVA    H6445667   7.062   0.721   1.528  2.8283 -2.9957 -3.7117
  269PVA    C3345668   7.037   0.491   1.427  0.6171 -0.0743 -0.3180
  269PVA    H6545669   7.007   0.386   1.417  1.2839 -0.7600  3.3307
  269PVA    H6645670   7.144   0.480   1.450  1.4831  2.8489 -2.3615
  269PVA    C3445671   7.038   0.573   1.292 -0.2047  0.3740  0.8944
  269PVA    H6745672   6.938   0.615   1.277  0.5885  2.2767  0.6924
  269PVA    H6845673   7.089   0.668   1.311 -0.4579  0.1654  2.8455
  269PVA    C3545674   7.085   0.481   1.171 -0.8516  1.1226 -0.1381
  269PVA    H6945675   7.013   0.398   1.163 -1.6951  1.3437  3.4097
  269PVA    O1245676   7.200   0.420   1.218 -0.1314 -1.2107  1.3134
  269PVA    H7045677   7.158   0.335   1.238  0.2642 -1.1182  2.6721
  269PVA    C3645678   7.099   0.542   1.030  0.1635  0.1920 -0.0884
  269PVA    H7145679   7.032   0.628   1.043 -1.9638 -1.6673  2.2526
  269PVA    H7245680   7.196   0.586   1.004 -0.0336  1.7890  1.6425
  269PVA    C3745681   7.061   0.451   0.915 -0.1910 -0.0217  0.6857
  269PVA    H7345682   6.972   0.395   0.948 -0.2718 -1.1579 -1.2930
  269PVA    H7445683   7.036   0.521   0.834  2.8078  1.6564  1.0710
  269PVA    C3845684   7.176   0.359   0.861  0.5214  0.2279 -0.1792
  269PVA    H7545685   7.234   0.317   0.945  2.5856 -1.3663 -2.2517
  269PVA    O1345686   7.261   0.445   0.795  0.1066 -0.8194 -0.9697
  269PVA    H7645687   7.271   0.423   0.701  2.6249  1.4416 -1.3650
  269PVA    C3945688   7.141   0.244   0.766  0.9771 -1.4348 -0.0142
  269PVA    H7745689   7.068   0.297   0.704  0.4815 -1.3465  0.6290
  269PVA    H7845690   7.090   0.175   0.834 -4.1491  1.8034 -0.0713
  269PVA    C4045691   7.271   0.169   0.695  1.0341 -0.6450  0.8123
  269PVA    H7945692   7.328   0.251   0.648 -1.9766 -0.3457 -2.7877
  269PVA    H8045693   7.336   0.124   0.771  2.8151  1.1973  0.4668
  269PVA    C4145694   7.249   0.084   0.577  0.3106 -0.0888  0.1447
  269PVA    H8145695   7.169   0.018   0.613  0.4049 -0.4829 -0.3456
  269PVA    O1445696   7.195   0.150   0.461  0.0589  0.1631 -0.2723
  269PVA    H8245697   7.098   0.147   0.466  0.0302  0.8545 -0.3308
  269PVA    C4245698   7.369   0.002   0.528 -0.1498  0.7677  0.5641
  269PVA    H8345699   7.450   0.062   0.487 -1.9225  1.4980 -2.1406
  269PVA    H8445700   7.418   7.640   0.614 -2.7357 -2.0593  0.7174
  269PVA    C4345701   7.362   7.564   0.418 -0.5368 -0.6866 -0.8666
  269PVA    H8545702   7.329   7.598   0.319  2.5159 -0.6715 -1.9581
  269PVA    H8645703   7.277   7.495   0.433 -0.5271 -1.6089 -4.1468
  269PVA    C4445704   7.491   7.474   0.386 -0.0810 -0.3261 -0.1770
  269PVA    H8745705   7.480   7.399   0.465 -3.7031  3.2812  3.2662
  269PVA    O1545706   7.612   7.531   0.409 -0.2699  0.1647  0.1967
  269PVA    H8845707   7.662   7.498   0.332 -0.3667  0.8866 -0.1821
  269PVA    C4545708   7.476   7.416   0.226 -0.5635 -0.0314 -0.8596
  269PVA    H8945709   7.432   7.316   0.217  1.4096 -0.7283 -5.3859
  269PVA    H9045710   7.395   7.464   0.170  0.3553  0.6463 -1.6373
  269PVA    C4645711   7.595   7.429   0.125 -0.0781 -0.8050 -1.2307
  269PVA    H9145712   7.653   7.519   0.147  0.2157 -1.5346  1.2292
  269PVA    H9245713   7.664   7.352   0.162 -0.0523 -0.7496 -1.1650
  269PVA    C4745714   7.583   7.418   8.061  0.2104  1.1937 -0.2781
  269PVA    H9345715   7.582   7.310   8.038 -4.0082  0.0182  3.8613
  269PVA    O1645716   7.470   7.488   8.012 -0.4902 -0.2024 -0.1242
  269PVA    H9445717   7.424   7.424   7.955  1.1658  1.8751 -4.2386
  269PVA    C4845718   7.697   7.489   7.994 -0.9811 -0.2730 -0.9180
  269PVA    H9545719   7.727   7.588   8.031 -4.3459 -0.1331  1.9750
  269PVA    H9645720   0.009   7.425   8.039  0.5619  2.3076  0.3634
  269PVA    C4945721   7.690   7.472   7.841 -0.5164  0.0175 -0.7651
  269PVA    H9745722   7.655   7.372   7.814  2.1898 -0.2664 -3.7802
  269PVA    H9845723   7.621   7.552   7.814 -1.3874 -0.6800 -0.6443
  269PVA    C5045724   0.054   7.509   7.776  0.3416 -0.8775  0.0041
  269PVA    H9945725   0.095   7.605   7.809 -0.8202 -0.4082  0.1450
  269PVA    O1745726   0.163   7.422   7.806 -0.5731  0.8315 -0.0236
  269PVA   H10045727   0.142   7.340   7.759 -2.2709  1.6804 -0.8535
  269PVA    C5145728   0.043   7.533   7.620 -1.2617  0.3365  0.2818
  269PVA   H10145729   7.737   7.614   7.603 -3.5288 -1.0211  2.6372
  269PVA   H10245730   7.763   7.449   7.567 -2.4158  1.3831 -0.4508
  270PVA     C145731   6.070   6.876   7.585 -0.4188  0.0053 -0.6758
  270PVA     H145732   6.014   6.884   7.678 -0.4794 -0.8767 -0.6256
  270PVA     H245733   6.087   6.980   7.554 -0.3848  0.9232  2.1115
  270PVA     C245734   6.205   6.816   7.617 -0.2979 -1.2302 -0.6339
  270PVA     H345735   6.189   6.766   7.713  0.0995  1.6174  1.0284
  270PVA     O145736   6.242   6.733   7.505 -0.0780 -0.4482 -0.4150
  270PVA     H445737   6.221   6.795   7.433  1.3880  0.1200 -0.3916
  270PVA     C345738   6.320   6.934   7.641 -0.6548  0.0070 -0.0516
  270PVA     H545739   6.326   7.016   7.568  2.1997 -0.1526 -0.1215
  270PVA     H645740   6.285   6.986   7.731  1.3724  0.7924  0.3435
  270PVA     C445741   6.463   6.876   7.675  0.1734 -1.1991 -0.6091
  270PVA     H745742   6.458   6.780   7.729  3.0439 -1.0830  0.0221
  270PVA     H845743   6.507   6.851   7.578  0.9112  0.3854 -0.7106
  270PVA     C545744   6.556   6.976   7.754  0.1811 -0.2041  0.6421
  270PVA     H945745   6.555   7.076   7.709  1.4503 -0.6233 -0.3863
  270PVA     O245746   6.487   6.979   7.890 -0.7874 -0.3318  0.1074
  270PVA    H1045747   6.395   6.948   7.883 -0.7245 -0.3600 -0.6711
  270PVA     C645748   6.696   6.907   7.750  0.2052  0.1954  0.1108
  270PVA    H1145749   6.686   6.797   7.753  2.9716 -0.2996 -3.0972
  270PVA    H1245750   6.738   6.918   7.650 -2.1758  1.0547 -0.8558
  270PVA     C745751   6.807   6.943   7.856  0.2348 -0.5098  0.1311
  270PVA    H1345752   6.765   6.927   7.956  1.6227  1.3835  1.1071
  270PVA    H1445753   6.821   7.052   7.843  0.0930 -0.6822 -1.7339
  270PVA     C845754   6.940   6.868   7.855 -0.5635  0.7773  0.4618
  270PVA    H1545755   6.987   6.875   7.756  2.1322  0.4954  1.6318
  270PVA     O345756   6.934   6.733   7.898 -0.6028 -0.3677  0.8925
  270PVA    H1645757   6.855   6.709   7.845 -0.6278  2.1366 -0.3439
  270PVA     C945758   7.035   6.939   7.953 -0.2879  1.0067 -0.1790
  270PVA    H1745759   7.114   6.868   7.982  0.0192  0.1843 -2.7525
  270PVA    H1845760   6.984   6.966   8.046 -1.8107  1.8173 -1.2078
  270PVA    C1045761   7.092   7.071   7.906  0.0107 -1.0381  0.1556
  270PVA    H1945762   7.150   7.035   7.820 -0.9127 -3.2798  0.4115
  270PVA    H2045763   7.011   7.134   7.868  0.1899 -1.7449 -1.4750
  270PVA    C1145764   7.171   7.153   8.018 -0.6299  0.0145  0.3825
  270PVA    H2145765   7.179   7.092   0.011 -0.0556  1.4008  1.2954
  270PVA     O445766   7.313   7.176   7.968 -0.5030  0.6180  0.8627
  270PVA    H2245767   7.330   7.188   7.873  2.6761  1.4265  1.4057
  270PVA    C1245768   7.109   7.292   8.056  0.8044 -1.1053 -0.1634
  270PVA    H2345769   6.999   7.290   8.055  0.6630  1.2412 -2.7710
  270PVA    H2445770   7.112   7.364   7.973 -0.9851 -2.7581 -1.7922
  270PVA    C1345771   7.164   7.350   0.089  0.3695  0.2064  0.7777
  270PVA    H2545772   7.270   7.327   0.081  0.4120  0.7570 -0.5699
  270PVA    H2645773   7.122   7.289   0.170  0.6895  1.3117  1.7986
  270PVA    C1445774   7.123   7.500   0.125  0.5823  0.7899  1.2746
  270PVA    H2745775   7.158   7.515   0.227  0.3608 -1.0295  1.6508
  270PVA     O545776   6.982   7.528   0.128  0.2562  0.6366  0.7661
  270PVA    H2845777   6.959   7.623   0.121  2.4660  1.1202 -1.2671
  270PVA    C1545778   7.191   7.622   0.043  0.9693  0.4227 -0.7586
  270PVA    H2945779   7.113   7.664   8.075  1.0889 -0.4463 -1.4910
  270PVA    H3045780   7.260   7.580   8.065 -1.5910 -2.6930 -1.6553
  270PVA    C1645781   7.267   0.046   0.127  0.6356 -0.4067  0.3167
  270PVA    H3145782   7.244   0.141   0.078  1.6033 -0.9106 -1.2138
  270PVA    H3245783   7.214   0.066   0.221 -0.9674  2.0944 -1.0206
  270PVA    C1745784   7.426   0.049   0.121  0.8089  0.1986 -0.0026
  270PVA    H3345785   7.484   7.653   0.167  0.9952 -0.4607 -1.3516
  270PVA     O645786   7.470   0.054   8.091 -1.0621 -0.2275 -0.0683
  270PVA    H3445787   7.477   7.645   8.068  0.0875 -0.9644  2.7742
  270PVA    C1845788   7.488   0.176   0.181  0.0515  0.3065  0.0158
  270PVA    H3545789   7.434   0.265   0.147  1.3912  0.5311 -1.6830
  270PVA    H3645790   7.454   0.160   0.284 -0.0805 -1.1054 -0.2227
  270PVA    C1945791   7.642   0.195   0.169  0.6515 -0.0513 -1.2953
  270PVA    H3745792   7.668   0.299   0.193  0.8787 -0.7492  1.9090
  270PVA    H3845793   7.688   0.179   0.070  4.9747 -3.6112  0.9414
  270PVA    C2045794   7.723   0.094   0.247 -0.4495 -0.1709 -0.6645
  270PVA    H3945795   7.701   7.673   0.231  2.4083 -0.9762  0.2039
  270PVA     O745796   7.701   0.110   0.393  0.3345 -0.9917  0.5053
  270PVA    H4045797   7.622   0.072   0.436 -0.1631 -0.0735  0.4402
  270PVA    C2145798   0.113   0.107   0.210  0.4329  0.5185  1.0338
  270PVA    H4145799   0.107   0.100   0.101  0.0498 -1.2024  1.1431
  270PVA    H4245800   0.151   0.207   0.233  2.4087  0.8270 -2.8221
  270PVA    C2245801   0.196   7.670   0.261 -0.6649  0.0762 -0.2037
  270PVA    H4345802   0.301   0.010   0.241 -0.6795 -0.1164 -0.5194
  270PVA    H4445803   0.182   7.663   0.369  1.6929 -0.8098  0.0969
  270PVA    C2345804   0.174   7.537   0.194  0.2749  0.4285  0.3990
  270PVA    H4545805   0.126   7.550   0.096  0.1772 -1.9376  0.0683
  270PVA     O845806   0.106   7.449   0.271  0.3967 -0.5017 -0.4872
  270PVA    H4645807   0.164   7.389   0.321 -1.0137 -1.0586  0.5553
  270PVA    C2445808   0.293   7.451   0.151 -0.8213 -0.4416  0.3515
  270PVA    H4745809   0.374   7.522   0.128 -1.0121 -0.6216 -0.9084
  270PVA    H4845810   0.316   7.386   0.237  1.5911  0.7891  0.7456
  270PVA    C2545811   0.277   7.372   0.018 -0.3321  0.8348  1.3758
  270PVA    H4945812   0.381   7.356   8.085 -0.3367  0.8516  1.3515
  270PVA    H5045813   0.239   7.430   8.030  3.4301 -1.0177 -1.9230
  270PVA    C2645814   0.220   7.227   0.021 -0.0144  0.1243 -0.2709
  270PVA    H5145815   0.288   7.157   0.072 -2.5677  0.2373  3.6903
  270PVA     O945816   0.100   7.217   0.095 -0.6985 -0.1345 -0.4101
  270PVA    H5245817   0.125   7.230   0.188  1.5783  1.6750 -1.1719
  270PVA    C2745818   0.191   7.174   7.976 -0.1654 -0.4576  0.1383
  270PVA    H5345819   0.277   7.204   7.915  1.5442 -1.5120  1.9254
  270PVA    H5445820   0.100   7.218   7.933 -1.0813 -1.8908  0.5665
  270PVA    C2845821   0.177   7.026   7.961 -0.0974 -0.6292  0.0863
  270PVA    H5545822   0.249   6.979   8.030  0.1359 -4.4352 -2.4294
  270PVA    H5645823   0.079   6.990   7.995 -0.3156  0.6017  0.8081
  270PVA    C2945824   0.202   6.956   7.836 -0.3510  0.0814  0.3553
  270PVA    H5745825   0.127   6.999   7.769 -1.3398 -0.1133  1.3033
  270PVA    O1045826   0.326   6.968   7.779 -0.3214 -0.2404 -0.6704
  270PVA    H5845827   0.351   6.874   7.775  4.6438  0.8406 -1.9333
  270PVA    C3045828   0.152   6.800   7.822 -0.8433  0.2338  0.1827
  270PVA    H5945829   0.224   6.728   7.861 -1.1481  1.1134  2.5814
  270PVA    H6045830   0.067   6.795   7.892 -2.6123  5.4783 -1.0485
  270PVA    C3145831   0.108   6.783   7.668 -0.1650 -0.3533  0.1949
  270PVA    H6145832   0.068   6.873   7.620  0.2630 -1.9977 -3.6059
  270PVA    H6245833   0.201   6.772   7.611  0.3449 -0.4600  1.0400
  270PVA    C3245834   0.024   6.666   7.619 -0.5460  0.1951  0.5783
  270PVA    H6345835   0.013   6.574   7.679 -3.3712 -0.9064 -1.3637
  270PVA    O1145836   0.097   6.613   7.510 -0.1709  0.0669 -0.8156
  270PVA    H6445837   0.048   6.607   7.426 -0.9362  0.3726 -0.4032
  270PVA    C3345838   7.646   6.701   7.568 -0.3185 -0.9499 -0.3719
  270PVA    H6545839   7.580   6.753   7.639  0.9054 -1.4743  1.2194
  270PVA    H6645840   7.588   6.609   7.551  0.3742 -1.3123 -0.8131
  270PVA    C3445841   7.652   6.775   7.426 -0.4666  0.3167  0.9717
  270PVA    H6745842   7.697   6.875   7.422  2.5637 -0.9787 -1.8084
  270PVA    H6845843   7.704   6.713   7.353  1.1576  1.5507  1.0186
  270PVA    C3545844   7.501   6.797   7.357 -0.8836  0.9783 -1.4522
  270PVA    H6945845   7.428   6.824   7.435  1.2625  0.5653  0.8097
  270PVA    O1245846   7.468   6.666   7.298 -0.4107  0.4044 -0.0070
  270PVA    H7045847   7.390   6.629   7.344  0.3451 -2.2674 -0.7112
  270PVA    C3645848   7.500   6.915   7.257 -0.3584 -0.0527 -0.1930
  270PVA    H7145849   7.537   7.010   7.297 -3.1723  0.3246  1.8050
  270PVA    H7245850   7.568   6.877   7.179  0.4740 -4.0493  2.1716
  270PVA    C3745851   7.359   6.946   7.204 -0.5193  0.1174  0.2949
  270PVA    H7345852   7.325   6.848   7.169 -0.4057 -0.5694  2.0077
  270PVA    H7445853   7.293   6.972   7.288 -0.0678  0.8516  0.4291
  270PVA    C3845854   7.336   7.034   7.084 -0.6063  0.6158  0.1997
  270PVA    H7545855   7.371   7.136   7.104 -0.2508  0.6875 -0.7486
  270PVA    O1345856   7.415   6.967   6.979  0.7338  0.0417 -0.2823
  270PVA    H7645857   7.498   7.017   6.991 -0.8670  2.3023  3.1092
  270PVA    C3945858   7.193   7.045   7.035  0.7668 -0.7096  0.5249
  270PVA    H7745859   7.152   7.075   7.132 -0.6303 -1.2379  0.1151
  270PVA    H7845860   7.146   6.949   7.012 -2.3967  1.6853 -5.1200
  270PVA    C4045861   7.153   7.162   6.939 -0.5083 -0.0068 -0.1244
  270PVA    H7945862   7.046   7.145   6.919  0.2763 -3.1404 -2.4314
  270PVA    H8045863   7.163   7.251   7.003 -0.7383 -0.7389  0.9373
  270PVA    C4145864   7.243   7.188   6.813 -0.3125  0.2774 -0.5480
  270PVA    H8145865   7.348   7.212   6.836  0.7808 -3.0223 -1.5924
  270PVA    O1445866   7.245   7.064   6.736 -0.0345 -0.6976 -0.1971
  270PVA    H8245867   7.271   7.002   6.806 -0.9999 -0.7955  0.0843
  270PVA    C4245868   7.186   7.302   6.714  0.2480  1.2322 -0.7843
  270PVA    H8345869   7.245   7.290   6.623 -0.9701 -2.6396 -1.2461
  270PVA    H8445870   7.080   7.290   6.688  0.8386  1.1772 -3.4021
  270PVA    C4345871   7.187   7.445   6.766 -0.4750 -0.4028 -1.1320
  270PVA    H8545872   7.110   7.476   6.839  0.8953  0.9114 -0.1781
  270PVA    H8645873   7.173   7.493   6.669  1.1592  1.0665 -0.6899
  270PVA    C4445874   7.329   7.480   6.819 -0.9333 -0.6495 -0.3316
  270PVA    H8745875   7.404   7.430   6.757  1.4941  0.7068  1.2975
  270PVA    O1545876   7.347   7.420   6.953 -0.3547 -0.4062 -0.2010
  270PVA    H8845877   7.262   7.444   6.994 -1.3970 -1.7678 -1.4674
  270PVA    C4545878   7.371   7.640   6.832 -0.6127  0.3555  0.1261
  270PVA    H8945879   7.308   0.008   6.905  0.6963  0.8964  0.9123
  270PVA    H9045880   7.365   7.679   6.730  6.0826 -0.2121 -0.9164
  270PVA    C4645881   7.524   7.657   6.871  0.0405  0.1151 -0.5126
  270PVA    H9145882   7.583   7.624   6.785 -2.6930  0.0875 -2.5179
  270PVA    H9245883   7.552   7.587   6.951 -0.2084  3.1774  2.4961
  270PVA    C4745884   7.582   0.103   6.914 -0.3530  0.4209 -0.5378
  270PVA    H9345885   7.528   0.137   7.003 -1.4083 -3.6273  0.5794
  270PVA    O1645886   7.558   0.190   6.805 -0.8240  0.4972 -0.0536
  270PVA    H9445887   7.475   0.238   6.818 -0.6697  0.3924  1.3936
  270PVA    C4845888   7.732   0.104   6.952  0.4687 -0.6003  0.6596
  270PVA    H9545889   0.025   0.177   6.893 -3.2199  1.8829 -0.2801
  270PVA    H9645890   0.019   0.013   6.923  1.3165 -0.1052  0.5911
  270PVA    C4945891   7.765   0.101   7.093 -1.0846 -0.8678 -0.5200
  270PVA    H9745892   7.708   0.182   7.141 -0.9244 -1.4743  0.7479
  270PVA    H9845893   7.744   0.007   7.146 -0.3392 -0.5014  0.4678
  270PVA    C5045894   0.156   0.123   7.112 -0.3442 -0.3159  0.6800
  270PVA    H9945895   0.178   0.228   7.091 -1.7863  0.2489  1.7840
  270PVA    O1745896   0.246   0.039   7.040 -0.5136  0.7428  0.5341
  270PVA   H10045897   0.325   0.032   7.096  1.2690 -0.2681 -1.9578
  270PVA    C5145898   0.200   0.121   7.258 -1.4789 -0.8794  0.0080
  270PVA   H10145899   0.274   0.202   7.259 -1.3069 -1.0322 -0.2763
  270PVA   H10245900   0.114   0.165   7.310  0.2764  3.1339 -0.0911
  271PVA     C145901   5.584   6.803   7.415 -0.4398 -0.5320  1.3163
  271PVA     H145902   5.574   6.912   7.402  1.1833 -0.3209  1.6459
  271PVA     H245903   5.524   6.782   7.325  0.4713  2.1349 -0.0559
  271PVA     C245904   5.527   6.715   7.532 -0.7939  0.0047  0.0534
  271PVA     H345905   5.555   6.774   7.620  0.3369 -0.7636  0.2283
  271PVA     O145906   5.595   6.593   7.543  0.3271 -0.2718  0.5401
  271PVA     H445907   5.630   6.574   7.454  2.0337  0.1449  1.0778
  271PVA     C345908   5.367   6.692   7.542  0.3902  0.8152  0.7773
  271PVA     H545909   5.339   6.611   7.473 -1.2018  2.3811 -0.5340
  271PVA     H645910   5.316   6.781   7.501 -2.1464 -0.4161  1.0723
  271PVA     C445911   5.322   6.657   7.683  0.8328  0.7677  0.0963
  271PVA     H745912   5.413   6.612   7.723 -0.5523 -3.0532 -0.6609
  271PVA     H845913   5.327   6.755   7.732 -2.1526  2.5927 -2.8088
  271PVA     C545914   5.202   6.551   7.702  0.7102 -0.2166 -1.7141
  271PVA     H945915   5.212   6.454   7.651 -0.7188 -1.4046  0.1122
  271PVA     O245916   5.086   6.629   7.675  0.8400  0.5496  0.6244
  271PVA    H1045917   5.080   6.711   7.728  2.1286  0.1166  1.5101
  271PVA     C645918   5.200   6.518   7.859  0.5382 -0.4597 -0.2710
  271PVA    H1145919   5.266   6.436   7.886  1.3759  0.8276  1.8063
  271PVA    H1245920   5.247   6.604   7.909  3.5189 -1.3771 -1.2885
  271PVA     C745921   5.064   6.474   7.934 -0.4702 -0.2958 -0.2331
  271PVA    H1345922   4.990   6.417   7.877 -0.9208 -0.9391  0.9763
  271PVA    H1445923   5.016   6.567   7.966  0.7907  0.0977  0.6069
  271PVA     C845924   5.110   6.403   8.069 -0.7280  0.2439  0.0567
  271PVA    H1545925   5.176   6.322   8.035  0.4685  1.0184  0.4579
  271PVA     O345926   5.172   6.506   0.048 -0.5592 -0.6474  0.6336
  271PVA    H1645927   5.111   6.580   0.062  0.2723 -0.2550  2.5868
  271PVA     C945928   4.993   6.364   0.072 -0.2173 -0.1561 -0.2626
  271PVA    H1745929   4.895   6.350   0.023  0.9500 -1.6924 -2.3391
  271PVA    H1845930   4.976   6.445   0.144  4.9934  0.8397  0.1815
  271PVA    C1045931   5.038   6.229   0.150 -0.4458 -0.1733 -0.1504
  271PVA    H1945932   5.132   6.246   0.204  1.3200 -1.5995 -2.5860
  271PVA    H2045933   5.069   6.154   0.076  0.2703 -0.0300 -0.0111
  271PVA    C1145934   4.941   6.149   0.241 -0.2624 -0.4434 -0.7201
  271PVA    H2145935   4.908   6.220   0.318  3.4415  0.0417  0.6125
  271PVA     O445936   4.839   6.081   0.172 -0.5610  1.4143 -0.2761
  271PVA    H2245937   4.846   5.990   0.205 -2.4051  2.6265  4.2893
  271PVA    C1245938   5.029   6.050   0.324 -0.7409 -0.3046 -1.2547
  271PVA    H2345939   5.084   5.986   0.254 -4.3885 -2.6515 -2.2121
  271PVA    H2445940   5.103   6.116   0.373  0.4920 -3.1758  1.0307
  271PVA    C1345941   4.967   5.950   0.435  0.4922  0.0136  0.3369
  271PVA    H2545942   4.928   5.860   0.387  2.2159 -0.2425 -0.6714
  271PVA    H2645943   4.880   5.986   0.491  1.1992 -2.4640  3.3400
  271PVA    C1445944   5.068   5.906   0.551  0.4486 -0.3370  0.8803
  271PVA    H2745945   5.105   5.989   0.614  3.0829  0.5462 -1.6329
  271PVA     O545946   5.180   5.843   0.483 -0.1678  1.4469  0.9713
  271PVA    H2845947   5.257   5.824   0.540  0.7809 -4.5955 -1.5574
  271PVA    C1545948   5.007   5.800   0.648 -0.7444 -0.1642  0.5922
  271PVA    H2945949   4.960   5.712   0.603  0.6954 -0.8820  0.4418
  271PVA    H3045950   4.927   5.847   0.707 -1.9084 -2.9343  1.3631
  271PVA    C1645951   5.094   5.753   0.760 -0.0181  0.1571 -0.6367
  271PVA    H3145952   5.174   5.696   0.712  1.5444  3.1245 -1.8220
  271PVA    H3245953   5.132   5.830   0.828 -0.2827 -2.2051  2.4571
  271PVA    C1745954   5.030   5.670   0.880  0.0263 -0.6311  0.5099
  271PVA    H3345955   4.978   5.596   0.818 -3.5792 -0.0952  2.6250
  271PVA     O645956   4.941   5.757   0.952  0.0975  0.1001 -0.0468
  271PVA    H3445957   4.899   5.704   1.022  0.2010 -0.5400 -0.4597
  271PVA    C1845958   5.143   5.613   0.973  0.7072 -1.1343 -0.8115
  271PVA    H3545959   5.213   5.559   0.908  1.6794 -2.2105  1.0519
  271PVA    H3645960   5.104   5.539   1.044  1.3493  0.2901  1.1322
  271PVA    C1945961   5.206   5.715   1.081 -0.4124 -0.9092 -0.3286
  271PVA    H3745962   5.232   5.806   1.026  0.6722 -2.2024 -2.0598
  271PVA    H3845963   5.141   5.743   1.165  3.8048  1.9478  2.4050
  271PVA    C2045964   5.339   5.675   1.155 -0.3355  0.1606 -0.1408
  271PVA    H3945965   5.405   5.610   1.096 -1.4772 -0.6974 -0.5282
  271PVA     O745966   5.312   5.620   1.277 -0.1400 -0.4293 -0.5805
  271PVA    H4045967   5.277   5.689   1.337  1.3383  0.1087 -0.3079
  271PVA    C2145968   5.430   5.791   1.186  0.2238  0.0934 -0.4238
  271PVA    H4145969   5.371   5.852   1.255 -2.5583 -1.3348 -1.4021
  271PVA    H4245970   5.442   5.860   1.102 -0.8930  3.3523  1.8876
  271PVA    C2245971   5.565   5.752   1.251  0.1549  0.1962 -0.0394
  271PVA    H4345972   5.538   5.730   1.355 -0.1153 -4.0823 -0.8061
  271PVA    H4445973   5.600   5.654   1.215  3.0194  0.2068  2.3292
  271PVA    C2345974   5.687   5.857   1.244  0.1224  0.1117  0.4674
  271PVA    H4545975   5.640   5.955   1.257  1.0705  1.1458 -2.8696
  271PVA     O845976   5.733   5.860   1.109 -0.2097 -0.1597  2.1154
  271PVA    H4645977   5.710   5.768   1.087 -2.0014  1.1218 -2.3408
  271PVA    C2445978   5.801   5.841   1.341  0.5157  0.4130 -0.8644
  271PVA    H4745979   5.881   5.774   1.308  0.7910  0.3750 -0.1424
  271PVA    H4845980   5.753   5.798   1.430  0.5085 -0.9339 -1.4853
  271PVA    C2545981   5.871   5.975   1.377 -0.0692  1.5242 -0.1469
  271PVA    H4945982   5.830   6.007   1.473  0.8814 -0.2216  0.8883
  271PVA    H5045983   5.832   6.048   1.305  1.9556  0.7875 -2.1214
  271PVA    C2645984   6.029   5.962   1.389  0.1674 -0.5419 -0.6857
  271PVA    H5145985   6.057   5.858   1.408  1.1376  0.1231  2.0292
  271PVA     O945986   6.080   5.995   1.259  0.1191 -0.2583  0.2933
  271PVA    H5245987   6.033   5.948   1.189  0.3817 -1.9049  1.1587
  271PVA    C2745988   6.094   6.055   1.508  0.5083 -0.0022  0.2888
  271PVA    H5345989   6.039   6.021   1.596 -3.2017 -2.0287 -2.5194
  271PVA    H5445990   6.067   6.162   1.514 -0.2107 -0.2048  0.7760
  271PVA    C2845991   6.254   6.045   1.516  0.9889  1.0418 -0.8373
  271PVA    H5545992   6.269   5.941   1.483  0.6171 -0.4084  3.0565
  271PVA    H5645993   6.294   6.104   1.432  0.8274  0.0030 -1.6728
  271PVA    C2945994   6.326   6.059   1.660 -1.1707  0.1353  0.7469
  271PVA    H5745995   6.301   5.964   1.709  0.1508 -1.2201 -1.0819
  271PVA    O1045996   6.280   6.168   1.725 -0.3711  0.0642  0.1397
  271PVA    H5845997   6.189   6.142   1.747 -1.3859  0.8551 -2.6467
  271PVA    C3045998   6.482   6.056   1.670  0.4279  0.7300 -0.4986
  271PVA    H5945999   6.531   5.996   1.592 -3.0466 -0.9634 -1.5653
  271PVA    H6046000   6.509   6.163   1.674 -1.0042  1.1607 -1.6264
  271PVA    C3146001   6.526   5.961   1.794 -0.3332  0.4486  0.1516
  271PVA    H6146002   6.449   5.883   1.804  3.3836 -3.6338 -0.1153
  271PVA    H6246003   6.531   6.014   1.890  0.6308 -0.8836  0.8663
  271PVA    C3246004   6.651   5.863   1.789 -0.2956 -0.3900  0.0835
  271PVA    H6346005   6.649   5.805   1.696  4.7834 -0.5438 -0.2011
  271PVA    O1146006   6.760   5.949   1.809  0.4318  0.9957 -0.1154
  271PVA    H6446007   6.744   5.970   1.903 -1.5354 -1.1074  0.1165
  271PVA    C3346008   6.655   5.757   1.906 -0.3559 -1.0024 -0.1781
  271PVA    H6546009   6.561   5.700   1.905  0.5269 -2.7814 -4.4250
  271PVA    H6646010   6.677   5.809   2.000 -1.6576 -3.8920  1.8662
  271PVA    C3446011   6.767   5.659   1.879  0.2884  0.4671 -1.7544
  271PVA    H6746012   6.856   5.712   1.916 -1.8237  3.2577 -0.3014
  271PVA    H6846013   6.779   5.639   1.772  1.0238 -1.6337 -1.3368
  271PVA    C3546014   6.756   5.521   1.939  0.6845  0.8234 -0.8579
  271PVA    H6946015   6.757   5.533   2.048 -0.5396  0.1597 -0.7560
  271PVA    O1246016   6.633   5.452   1.901  0.7524 -0.8374 -0.0606
  271PVA    H7046017   6.560   5.477   1.961  0.5577 -3.1821  0.7398
  271PVA    C3646018   6.878   5.421   1.919 -0.3145  0.8803 -0.6800
  271PVA    H7146019   6.950   5.487   1.869  1.7681  1.9121  3.2426
  271PVA    H7246020   6.931   5.395   2.012  1.0496 -2.6872 -2.2513
  271PVA    C3746021   6.857   5.274   1.850  0.0122  1.6234  0.1923
  271PVA    H7346022   6.798   5.290   1.759  2.1345 -0.4019 -1.6615
  271PVA    H7446023   6.782   5.217   1.906 -1.5055  2.9817 -0.3873
  271PVA    C3846024   6.981   5.197   1.795  0.0470 -0.0747 -0.2052
  271PVA    H7546025   7.034   5.255   1.718  0.9293 -3.1007 -2.0574
  271PVA    O1346026   7.074   5.179   1.897 -0.0403 -0.5354  0.0071
  271PVA    H7646027   7.064   5.247   1.966  5.8176  0.2538  0.6384
  271PVA    C3946028   6.938   5.067   1.723 -0.1512 -0.2729  0.2655
  271PVA    H7746029   6.859   5.021   1.783 -1.0618 -1.2295 -1.6209
  271PVA    H7846030   6.893   5.082   1.624 -2.4084  0.0143  1.2712
  271PVA    C4046031   7.042   4.956   1.710 -0.7240  0.7376  0.4290
  271PVA    H7946032   7.133   5.012   1.682 -1.7038  1.4796 -1.5151
  271PVA    H8046033   7.066   4.925   1.812 -1.5540 -0.7128  0.1928
  271PVA    C4146034   7.017   4.839   1.607  1.3351 -0.8173  1.3463
  271PVA    H8146035   6.940   4.776   1.653  3.3575 -3.4917  1.2675
  271PVA    O1446036   6.972   4.891   1.488 -0.2261  0.5070 -0.0900
  271PVA    H8246037   7.049   4.946   1.466 -1.0514  1.0205 -1.8737
  271PVA    C4246038   7.142   4.758   1.594  0.0240  0.9814  0.4275
  271PVA    H8346039   7.146   4.681   1.672 -1.7009 -0.6450 -0.9857
  271PVA    H8446040   7.237   4.813   1.593  0.7783  0.0261 -4.1537
  271PVA    C4346041   7.157   4.665   1.462  0.0488  0.7174  0.2242
  271PVA    H8546042   7.071   4.596   1.460  0.4432  0.2266 -0.8049
  271PVA    H8646043   7.246   4.610   1.493 -1.1271 -1.3768  0.0728
  271PVA    C4446044   7.179   4.712   1.311  0.8520  0.3188 -0.9217
  271PVA    H8746045   7.251   4.793   1.296  2.9285 -0.9901  1.2466
  271PVA    O1546046   7.052   4.745   1.253 -0.3914 -0.7593 -0.2179
  271PVA    H8846047   7.026   4.824   1.305 -0.1351 -1.2085  0.6149
  271PVA    C4546048   7.249   4.602   1.217  0.3603  0.4902 -0.0824
  271PVA    H8946049   7.192   4.509   1.227  0.0153  0.4017 -2.2701
  271PVA    H9046050   7.347   4.583   1.264 -0.6579 -0.4867  1.7399
  271PVA    C4646051   7.278   4.639   1.067 -0.6672 -0.0430 -0.2552
  271PVA    H9146052   7.185   4.675   1.022  0.0591  2.0465 -0.2424
  271PVA    H9246053   7.346   4.725   1.073  2.5372 -2.5036  2.8731
  271PVA    C4746054   7.352   4.528   0.983 -0.5305  0.0328 -0.9798
  271PVA    H9346055   7.438   4.489   1.040 -2.1223 -2.4637 -0.1386
  271PVA    O1646056   7.265   4.411   0.978  0.4689  1.1684 -0.4366
  271PVA    H9446057   7.181   4.438   0.936  0.9304  0.8882 -1.5652
  271PVA    C4846058   7.396   4.567   0.839 -0.4241 -0.7071  0.4590
  271PVA    H9546059   7.386   4.676   0.839  1.6927 -0.4833 -0.2529
  271PVA    H9646060   7.504   4.553   0.835 -0.1598  0.1219  3.1556
  271PVA    C4946061   7.345   4.514   0.705  0.1006  0.5482  0.7868
  271PVA    H9746062   7.236   4.512   0.717 -0.0225  0.8344 -0.1978
  271PVA    H9846063   7.381   4.412   0.688  0.3652  0.8416 -0.5368
  271PVA    C5046064   7.383   4.603   0.578  0.4664  0.1034 -1.9007
  271PVA    H9946065   7.363   4.702   0.622 -1.2085 -1.9222  2.4833
  271PVA    O1746066   7.513   4.583   0.563 -1.6853 -0.3156 -0.5062
  271PVA   H10046067   7.523   4.492   0.595 -0.9290 -0.0535  0.0105
  271PVA    C5146068   7.301   4.600   0.446 -1.3784  0.0477  0.3241
  271PVA   H10146069   7.194   4.602   0.469 -0.9577  2.5090  2.5188
  271PVA   H10246070   7.323   4.503   0.400  0.5587 -0.2906  1.8099
  272PVA     C146071   0.792   0.014   7.180  0.3116 -0.4101 -0.5565
  272PVA     H146072   0.877   0.004   7.110 -1.8010 -3.1180 -2.9989
  272PVA     H246073   0.822   7.631   7.261 -1.3795  1.3218  1.6253
  272PVA     C246074   0.687   7.619   7.106  0.0185 -0.6244  0.1091
  272PVA     H346075   0.656   7.684   7.024  0.6588 -1.1383 -0.5518
  272PVA     O146076   0.582   7.582   7.203  0.3985  0.1589  0.4257
  272PVA     H446077   0.599   7.645   7.275  2.8553  2.3762 -1.8904
  272PVA     C346078   0.731   7.486   7.048 -0.5949 -0.7485 -0.1831
  272PVA     H546079   0.736   7.410   7.127  0.0703 -0.1830  0.3304
  272PVA     H646080   0.833   7.496   7.010 -1.0648 -0.1647 -1.3685
  272PVA     C446081   0.638   7.411   6.940  0.1257  0.3927  0.4432
  272PVA     H746082   0.541   7.400   6.990  1.1048 -0.7232  2.2137
  272PVA     H846083   0.610   7.481   6.860 -2.1850 -2.6438 -1.6482
  272PVA     C546084   0.698   7.273   6.882  0.4235 -0.3312  0.4891
  272PVA     H946085   0.756   7.291   6.791 -1.6671  0.4713 -0.7632
  272PVA     O246086   0.757   7.206   6.986 -0.3414  0.5362 -0.5170
  272PVA    H1046087   0.758   7.112   6.961 -1.5390  0.9474 -2.2616
  272PVA     C646088   0.578   7.190   6.832 -1.3977 -0.8266  0.9627
  272PVA    H1146089   0.544   7.133   6.919 -0.2005 -4.7632 -0.9247
  272PVA    H1246090   0.490   7.243   6.794 -0.2418  1.1608  0.9239
  272PVA     C746091   0.625   7.082   6.723  1.3361 -0.9192 -1.0680
  272PVA    H1346092   0.733   7.067   6.718  1.4370 -0.1602 -1.2837
  272PVA    H1446093   0.604   7.131   6.627  0.9501 -0.8622 -0.9584
  272PVA     C846094   0.562   6.941   6.720 -0.2309 -1.6062  0.5999
  272PVA    H1546095   0.605   6.891   6.808  2.2338  3.1534  2.4782
  272PVA     O346096   0.620   6.893   6.598 -0.5587 -0.1099  0.1672
  272PVA    H1646097   0.556   6.852   6.536  1.0284  0.1813 -1.7569
  272PVA     C946098   0.411   6.920   6.723  0.1320  0.2136  0.0967
  272PVA    H1746099   0.364   6.947   6.628 -2.1436  3.0204  1.8321
  272PVA    H1846100   0.350   6.983   6.789 -1.3642 -1.8464  0.7659
  272PVA    C1046101   0.384   6.774   6.750 -0.8948  0.3349 -0.2050
  272PVA    H1946102   0.454   6.718   6.686 -1.4713 -0.8841  0.2205
  272PVA    H2046103   0.421   6.750   6.850 -1.0087  2.1551  0.3092
  272PVA    C1146104   0.248   6.720   6.723  0.3670  1.2601 -0.0081
  272PVA    H2146105   0.175   6.782   6.775 -1.3926 -1.0245  0.3853
  272PVA     O446106   0.222   6.716   6.584 -0.1742 -0.2188  0.2071
  272PVA    H2246107   0.141   6.663   6.575  0.5491 -1.6198  1.4457
  272PVA    C1246108   0.219   6.577   6.780 -0.2027 -0.1514 -0.0959
  272PVA    H2346109   0.291   6.502   6.745  0.5557  1.2677 -1.6969
  272PVA    H2446110   0.215   6.587   6.890  0.2328  1.3043 -0.1945
  272PVA    C1346111   0.067   6.524   6.749 -0.0615  0.2906  1.4769
  272PVA    H2546112   0.065   6.491   6.645 -1.0856  4.7392 -0.1434
  272PVA    H2646113   0.004   6.612   6.764  3.4479  3.0153  1.4970
  272PVA    C1446114   0.007   6.440   6.850  0.0868  0.6696  0.0100
  272PVA    H2746115   0.078   6.357   6.851 -2.0039 -1.3307 -2.7543
  272PVA     O546116   7.736   6.508   6.971 -0.8507 -0.1057  0.6824
  272PVA    H2846117   0.056   6.517   7.019 -1.6999 -1.1660  2.5117
  272PVA    C1546118   7.636   6.373   6.809  0.1056  0.4725  0.7966
  272PVA    H2946119   7.643   6.328   6.710 -1.5423  1.9780 -0.0625
  272PVA    H3046120   7.553   6.445   6.816 -0.6402 -0.3206  0.3769
  272PVA    C1646121   7.580   6.256   6.894 -0.0199 -0.3144  0.8497
  272PVA    H3146122   7.526   6.288   6.984  0.4129  1.9549  0.3567
  272PVA    H3246123   7.653   6.189   6.942 -0.8397 -0.7373  1.5389
  272PVA    C1746124   7.475   6.167   6.822 -0.8066 -0.4738  0.6914
  272PVA    H3346125   7.506   6.132   6.723 -2.3792 -0.8666  0.3155
  272PVA     O646126   7.375   6.254   6.769  0.4893 -0.1244  0.3971
  272PVA    H3446127   7.307   6.213   6.713 -3.1947  0.4432  3.9920
  272PVA    C1846128   7.419   6.049   6.905 -0.2245 -1.0732  0.7237
  272PVA    H3546129   7.500   6.005   6.965 -2.0133 -3.4192  1.5669
  272PVA    H3646130   7.362   6.097   6.985  2.5842  0.0423  2.1997
  272PVA    C1946131   7.360   5.944   6.808 -0.0324 -0.2733 -0.3444
  272PVA    H3746132   7.451   5.920   6.752 -0.4232  3.0865 -2.7079
  272PVA    H3846133   7.283   5.979   6.738  1.1247  3.1322 -0.0945
  272PVA    C2046134   7.293   5.824   6.869 -0.3074 -0.1561  0.4377
  272PVA    H3946135   7.208   5.856   6.930 -1.4053 -1.5447 -0.3074
  272PVA     O746136   7.386   5.767   6.954 -0.1483  0.0337  0.3142
  272PVA    H4046137   7.338   5.779   7.038 -2.6520 -0.0290 -1.0204
  272PVA    C2146138   7.258   5.714   6.767  0.1601  1.2416  1.2218
  272PVA    H4146139   7.268   5.619   6.821  0.9188  2.0348  2.5216
  272PVA    H4246140   7.337   5.715   6.691 -2.6767 -2.2357 -2.2076
  272PVA    C2246141   7.118   5.698   6.691  0.8377  0.6928 -0.5440
  272PVA    H4346142   7.051   5.657   6.768  1.5043 -2.8888 -1.6657
  272PVA    H4446143   7.091   5.794   6.647 -1.9432  0.6045  0.7912
  272PVA    C2346144   7.105   5.583   6.585 -0.1015  0.9116 -0.6189
  272PVA    H4546145   7.173   5.597   6.500 -0.2882  1.9905 -0.6070
  272PVA     O846146   7.125   5.456   6.645  0.0908 -0.0589  0.0425
  272PVA    H4646147   7.214   5.443   6.608 -1.4502 -5.0182 -2.9569
  272PVA    C2446148   6.962   5.577   6.544  0.0091 -0.7682  0.8808
  272PVA    H4746149   6.905   5.543   6.631 -1.0389  1.6019  1.1868
  272PVA    H4846150   6.925   5.678   6.521 -2.7204 -1.5274  1.5409
  272PVA    C2546151   6.917   5.505   6.407 -0.2907  0.0479 -0.4798
  272PVA    H4946152   6.937   5.400   6.433  6.0328  1.5682  2.7518
  272PVA    H5046153   6.994   5.542   6.338  1.5275 -5.7294 -2.1308
  272PVA    C2646154   6.773   5.537   6.376 -0.2457  0.5422  0.5333
  272PVA    H5146155   6.730   5.520   6.476 -0.5255 -0.0268  0.3196
  272PVA     O946156   6.748   5.673   6.329 -0.3324 -0.5860  0.6737
  272PVA    H5246157   6.768   5.734   6.402 -0.5828 -0.2201  0.4379
  272PVA    C2746158   6.689   5.423   6.305 -0.6042 -0.4073 -0.1272
  272PVA    H5346159   6.731   5.384   6.211  0.0638 -0.0075 -0.0049
  272PVA    H5446160   6.687   5.334   6.368  0.8786 -1.0674 -0.9682
  272PVA    C2846161   6.528   5.454   6.284 -0.4317 -0.2231  0.9608
  272PVA    H5546162   6.516   5.514   6.374 -0.6860  2.7066 -0.8968
  272PVA    H5646163   6.530   5.525   6.200 -2.6008 -0.6651  0.4756
  272PVA    C2946164   6.412   5.345   6.257 -0.2760 -0.8561 -0.5226
  272PVA    H5746165   6.442   5.250   6.303  1.6075 -0.1520 -0.2247
  272PVA    O1046166   6.408   5.330   6.117  0.0179 -0.2778 -0.7610
  272PVA    H5846167   6.491   5.293   6.083 -0.6285 -0.7953 -1.8508
  272PVA    C3046168   6.276   5.381   6.312 -0.2993 -0.8340 -0.7286
  272PVA    H5946169   6.274   5.460   6.389 -3.3301 -0.2795 -1.2787
  272PVA    H6046170   6.209   5.416   6.233 -1.2637  1.3564  0.9485
  272PVA    C3146171   6.205   5.258   6.371 -0.6044 -0.0274  0.9515
  272PVA    H6146172   6.275   5.221   6.446  1.3172  2.0630  0.3140
  272PVA    H6246173   6.212   5.182   6.291  1.9078  0.5986  0.5077
  272PVA    C3246174   6.058   5.260   6.432 -0.0268  0.9617  0.1683
  272PVA    H6346175   5.990   5.249   6.347  3.7427 -1.9865 -2.8544
  272PVA    O1146176   6.042   5.371   6.516  0.4172  0.2621 -0.6049
  272PVA    H6446177   6.131   5.388   6.553 -2.0160  0.1855  7.2187
  272PVA    C3346178   6.042   5.140   6.536  0.2376  0.4121  0.3320
  272PVA    H6546179   6.112   5.153   6.620 -3.5288 -1.1581  4.1106
  272PVA    H6646180   6.078   5.045   6.493  4.6391  1.5934  0.8417
  272PVA    C3446181   5.904   5.115   6.606 -0.5191 -0.6212  0.1084
  272PVA    H6746182   5.876   5.009   6.615 -4.1810  0.2082 -0.0384
  272PVA    H6846183   5.819   5.147   6.545 -0.1773  1.7008  0.7686
  272PVA    C3546184   5.878   5.193   6.738 -0.1877  0.1234 -0.5243
  272PVA    H6946185   5.783   5.165   6.786  1.7775 -1.7130  2.6548
  272PVA    O1246186   5.863   5.327   6.709  0.4086  0.4245  0.7983
  272PVA    H7046187   5.929   5.353   6.642  3.1144 -1.8647  2.3758
  272PVA    C3646188   5.984   5.177   6.855  0.3895 -0.1178  0.1327
  272PVA    H7146189   5.990   5.071   6.879  2.0396  0.5326  3.0664
  272PVA    H7246190   6.083   5.206   6.817  0.2573  0.8049  0.4587
  272PVA    C3746191   5.962   5.267   6.981  0.1374 -0.2384  0.9098
  272PVA    H7346192   5.874   5.230   7.034 -0.0875 -1.3566 -0.1908
  272PVA    H7446193   5.945   5.371   6.948  1.8854  1.2280  4.1411
  272PVA    C3846194   6.072   5.272   7.083 -0.8604 -0.2139 -0.2663
  272PVA    H7546195   6.053   5.339   7.169  1.6195  3.1218 -2.0691
  272PVA    O1346196   6.194   5.308   7.024 -0.1280  0.5104 -0.2253
  272PVA    H7646197   6.231   5.229   6.981  0.6723  0.4508  0.5337
  272PVA    C3946198   6.094   5.128   7.165 -0.2836 -0.5349 -0.0360
  272PVA    H7746199   6.155   5.057   7.109  2.6072  0.3227  1.8097
  272PVA    H7846200   6.001   5.072   7.183  1.5281 -3.5782  0.4922
  272PVA    C4046201   6.158   5.146   7.311  0.4367 -0.0565 -0.8546
  272PVA    H7946202   6.215   5.239   7.321  1.8983 -0.6996 -2.6365
  272PVA    H8046203   6.066   5.156   7.371  2.9191 -2.2393  3.8917
  272PVA    C4146204   6.224   5.019   7.365  0.3047  0.1640 -2.1469
  272PVA    H8146205   6.155   4.937   7.389  0.6864  0.8282  2.1741
  272PVA    O1446206   6.325   4.976   7.278 -0.6466 -0.4420 -0.3423
  272PVA    H8246207   6.388   5.049   7.293  0.4540 -1.1241 -1.4802
  272PVA    C4246208   6.287   5.059   7.501  0.1976  0.5850  0.2769
  272PVA    H8346209   6.219   5.137   7.538 -3.0336 -0.0574 -3.6291
  272PVA    H8446210   6.388   5.102   7.492  0.3690  0.1596  0.1356
  272PVA    C4346211   6.299   4.940   7.603  0.2672 -0.1072  0.5355
  272PVA    H8546212   6.358   4.852   7.573 -3.7880 -2.5656 -1.1992
  272PVA    H8646213   6.199   4.899   7.625 -0.4622  1.0129 -0.5175
  272PVA    C4446214   6.384   4.979   7.732 -0.5120  0.4693  0.4127
  272PVA    H8746215   6.382   4.900   7.807 -0.5151 -2.3944 -2.3850
  272PVA    O1546216   6.339   5.099   7.785  0.3233  1.0735 -0.5060
  272PVA    H8846217   6.246   5.070   7.778  0.9815 -0.7883 -4.5713
  272PVA    C4546218   6.538   5.001   7.698 -1.3542 -1.0269  0.9191
  272PVA    H8946219   6.541   5.097   7.645  1.1905 -0.9908  0.9750
  272PVA    H9046220   6.568   4.935   7.616 -3.1216  2.5059 -2.9323
  272PVA    C4646221   6.636   5.012   7.825  1.5508  0.3096  0.2996
  272PVA    H9146222   6.590   5.089   7.889  1.6702  1.2895 -0.7557
  272PVA    H9246223   6.620   4.921   7.883  0.0490  1.5863  2.0440
  272PVA    C4746224   6.782   5.043   7.784  0.9082 -1.0991  1.0731
  272PVA    H9346225   6.808   4.972   7.704  1.6719  0.3347 -0.0061
  272PVA    O1646226   6.793   5.186   7.732 -0.3804  0.3739 -0.4101
  272PVA    H9446227   6.714   5.242   7.747 -0.3832  1.9768 -4.8846
  272PVA    C4846228   6.866   5.025   7.909  0.1222 -0.1409 -0.2612
  272PVA    H9546229   6.835   5.103   7.980  1.8091  0.3750 -0.0411
  272PVA    H9646230   6.822   4.941   7.963  0.3718 -1.1048 -1.4994
  272PVA    C4946231   7.025   4.999   7.905  1.1362 -0.1810  0.3337
  272PVA    H9746232   7.081   5.077   7.852  0.0343  2.1545  2.3960
  272PVA    H9846233   7.035   4.896   7.871  1.3894 -1.9552  5.0387
  272PVA    C5046234   7.097   4.978   8.036  0.3899  0.6547 -0.0815
  272PVA    H9946235   7.203   4.957   8.014 -0.2256  1.1252 -4.4438
  272PVA    O1746236   7.108   5.103   8.083  0.7016 -0.7036  0.2241
  272PVA   H10046237   7.194   5.143   0.006 -0.7302  3.7818 -1.5192
  272PVA    C5146238   7.050   4.860   0.040  1.2849 -1.7235 -0.6627
  272PVA   H10146239   6.987   4.801   8.068  1.0208  1.5573 -3.5240
  272PVA   H10246240   6.974   4.904   0.106  1.7894 -0.9822 -0.5657
  273PVA     C146241   0.995   0.477   7.244 -0.3495 -0.5614 -0.3507
  273PVA     H146242   0.945   0.510   7.153  1.8475 -0.0953 -1.4480
  273PVA     H246243   0.978   0.563   7.309  0.3880 -1.1232  0.6153
  273PVA     C246244   1.139   0.484   7.207  0.1742  0.3738 -0.9923
  273PVA     H346245   1.124   0.537   7.113  3.2538  0.9359 -1.2603
  273PVA     O146246   1.203   0.351   7.171  0.9191 -0.3513  0.1702
  273PVA     H446247   1.137   0.304   7.116  4.4266 -2.7844 -2.4567
  273PVA     C346248   1.257   0.557   7.281  1.2198 -0.2454 -0.8375
  273PVA     H546249   1.347   0.567   7.220  2.0801  1.9993  0.6821
  273PVA     H646250   1.295   0.484   7.354  4.8446  0.4638 -1.8506
  273PVA     C446251   1.215   0.689   7.332 -0.3207 -0.4991  0.2983
  273PVA     H746252   1.149   0.732   7.255 -1.0041 -1.2880  0.4225
  273PVA     H846253   1.163   0.664   7.425 -1.8927 -4.3049 -1.3860
  273PVA     C546254   1.336   0.790   7.364  1.0858 -0.1173  1.6509
  273PVA     H946255   1.414   0.758   7.294 -1.3656 -4.0090  0.3204
  273PVA     O246256   1.388   0.759   7.488 -0.3304  0.1311 -1.8836
  273PVA    H1046257   1.484   0.757   7.477  0.1375 -2.9937  1.1056
  273PVA     C646258   1.320   0.947   7.354 -1.5435  0.2175 -1.5069
  273PVA    H1146259   1.310   0.987   7.253 -3.1021 -1.3765 -2.0286
  273PVA    H1246260   1.214   0.969   7.372 -1.6258  1.6305 -3.3904
  273PVA     C746261   1.419   1.055   7.420 -0.3180 -0.5014  0.1406
  273PVA    H1346262   1.519   1.055   7.375  1.3148  4.0599  2.9953
  273PVA    H1446263   1.434   1.027   7.525 -1.3868 -0.1889  0.3965
  273PVA     C846264   1.376   1.204   7.414 -0.3533 -0.0383  0.3566
  273PVA    H1546265   1.314   1.216   7.324 -0.7553 -0.9172  0.5014
  273PVA     O346266   1.309   1.249   7.526  0.2195 -0.0703 -0.3068
  273PVA    H1646267   1.233   1.193   7.548  1.7794 -2.5617 -0.9124
  273PVA     C946268   1.489   1.313   7.394 -0.0406  0.0926  0.3811
  273PVA    H1746269   1.550   1.299   7.304 -1.6967  1.3171 -0.9993
  273PVA    H1846270   1.551   1.318   7.484 -2.5827 -0.9030  2.3152
  273PVA    C1046271   1.437   1.459   7.385  0.6390 -0.8340  0.2397
  273PVA    H1946272   1.421   1.479   7.278 -2.0238  4.0039  1.2406
  273PVA    H2046273   1.339   1.481   7.429  1.5438  3.4591  0.5812
  273PVA    C1146274   1.541   1.574   7.419  0.3729 -0.3257 -0.9159
  273PVA    H2146275   1.543   1.609   7.523  0.1111  3.3711 -2.0013
  273PVA     O446276   1.676   1.539   7.395  0.7451  0.4776 -0.1422
  273PVA    H2246277   1.707   1.470   7.457 -1.9278  0.6899  1.6066
  273PVA    C1246278   1.524   1.711   7.332  0.0974 -0.7976 -0.7784
  273PVA    H2346279   1.530   1.683   7.226  1.5531  1.5962 -1.3982
  273PVA    H2446280   1.431   1.765   7.353  2.0240  2.2016  0.8228
  273PVA    C1346281   1.637   1.821   7.365 -0.2880 -0.0684 -0.5998
  273PVA    H2546282   1.660   1.825   7.472 -2.3343  1.4187 -0.1450
  273PVA    H2646283   1.714   1.787   7.295  2.8879 -0.2579  2.7206
  273PVA    C1446284   1.589   1.956   7.339 -0.1398  0.8254  0.4469
  273PVA    H2746285   1.502   1.973   7.404 -0.5423 -0.3480  0.2481
  273PVA     O546286   1.540   1.949   7.202 -0.4766 -0.3756 -0.8392
  273PVA    H2846287   1.580   2.007   7.135  0.3882  3.6998  2.7177
  273PVA    C1546288   1.707   2.059   7.366 -0.6185  0.0737 -0.2589
  273PVA    H2946289   1.791   2.044   7.298  0.0773  4.9048 -0.8156
  273PVA    H3046290   1.743   2.051   7.469  0.4565 -0.4759 -0.6623
  273PVA    C1646291   1.651   2.210   7.371  0.1459 -0.1530  0.2570
  273PVA    H3146292   1.599   2.238   7.278 -2.4624  1.4817  2.0728
  273PVA    H3246293   1.576   2.213   7.451 -1.5561  0.5905 -1.2734
  273PVA    C1746294   1.756   2.314   7.409 -0.4103  0.0659  0.4071
  273PVA    H3346295   1.840   2.303   7.339 -0.7510 -3.6117  0.3795
  273PVA     O646296   1.805   2.286   7.538  0.1092 -0.9338  0.1182
  273PVA    H3446297   1.738   2.223   7.570 -0.0856 -1.8236 -1.8726
  273PVA    C1846298   1.723   2.464   7.400  1.2230  0.7206  0.6372
  273PVA    H3546299   1.801   2.522   7.451  0.0832  1.4359  1.6186
  273PVA    H3646300   1.711   2.493   7.295 -3.0834  0.6171  0.9171
  273PVA    C1946301   1.583   2.491   7.473  0.4114 -0.1482  0.1042
  273PVA    H3746302   1.588   2.423   7.559  1.7569  2.3539  2.1621
  273PVA    H3846303   1.496   2.462   7.413 -1.2914  3.1277  0.7504
  273PVA    C2046304   1.571   2.640   7.522  1.1685 -0.9156  1.2111
  273PVA    H3946305   1.477   2.648   7.578  0.9710  0.2982  0.7263
  273PVA     O746306   1.685   2.665   7.602 -0.4834 -0.2012 -0.5370
  273PVA    H4046307   1.667   2.603   7.675 -2.6637 -0.5871 -1.3112
  273PVA    C2146308   1.559   2.741   7.394 -0.5111 -0.4104 -0.5912
  273PVA    H4146309   1.503   2.686   7.318  3.7118 -2.1501 -2.7394
  273PVA    H4246310   1.657   2.771   7.356 -1.2767  1.0628 -1.5001
  273PVA    C2246311   1.475   2.867   7.415  1.2978 -0.5277 -0.3481
  273PVA    H4346312   1.372   2.832   7.428  1.0292  0.2923 -0.2358
  273PVA    H4446313   1.504   2.917   7.508  0.7155 -0.4062 -0.2243
  273PVA    C2346314   1.474   2.961   7.285  0.7791 -0.8407  0.9761
  273PVA    H4546315   1.581   2.965   7.261  0.4108  1.2379 -0.6648
  273PVA     O846316   1.406   2.897   7.184  0.7540 -0.7712  0.1299
  273PVA    H4646317   1.371   2.817   7.227 -3.2526 -0.1059 -1.5214
  273PVA    C2446318   1.408   3.105   7.310  0.0971  0.0443 -0.6126
  273PVA    H4746319   1.321   3.096   7.377 -2.5072 -0.4474 -3.7812
  273PVA    H4846320   1.492   3.142   7.370  1.2565 -3.7875  0.3875
  273PVA    C2546321   1.391   3.214   7.197 -0.1709 -0.1795  1.4858
  273PVA    H4946322   1.300   3.196   7.139  0.3255  0.1116  0.6054
  273PVA    H5046323   1.460   3.202   7.114  1.1910  0.9374  2.4114
  273PVA    C2646324   1.390   3.366   7.252  0.3577 -0.6806  0.8697
  273PVA    H5146325   1.446   3.370   7.346  1.6720  1.3774  0.0661
  273PVA     O946326   1.251   3.415   7.266  0.5034  0.3077  0.4849
  273PVA    H5246327   1.187   3.404   7.193  0.0231 -1.4555  1.1357
  273PVA    C2746328   1.460   3.478   7.161  0.2086  0.1193 -0.3023
  273PVA    H5346329   1.555   3.442   7.120 -0.1348  1.6766 -2.6470
  273PVA    H5446330   1.409   3.506   7.068  3.9626  2.3363 -1.8815
  273PVA    C2846331   1.480   3.616   7.246 -0.4706  0.4938  0.6427
  273PVA    H5546332   1.396   3.683   7.227  1.3818  2.5350 -0.8651
  273PVA    H5646333   1.471   3.599   7.354  0.3038  0.3933  0.6945
  273PVA    C2946334   1.587   3.710   7.200  0.8835  0.0106  0.0426
  273PVA    H5746335   1.538   3.757   7.114 -0.4151 -1.9189 -0.3107
  273PVA    O1046336   1.693   3.643   7.163 -0.9965  0.1912  0.0266
  273PVA    H5846337   1.706   3.677   7.072 -2.4141  1.1205  0.1315
  273PVA    C3046338   1.630   3.817   7.301 -0.9221 -0.6337  0.7412
  273PVA    H5946339   1.539   3.880   7.301 -0.9836 -0.6161 -1.8781
  273PVA    H6046340   1.636   3.755   7.391 -0.5152 -3.2868 -1.0167
  273PVA    C3146341   1.769   3.881   7.277  0.6903  0.9085 -0.1930
  273PVA    H6146342   1.783   3.895   7.169  2.0894 -2.9250 -0.6843
  273PVA    H6246343   1.850   3.809   7.297 -0.9260 -0.5840  1.3113
  273PVA    C3246344   1.824   4.006   7.344  1.0788 -1.0785  0.4641
  273PVA    H6346345   1.767   4.085   7.292  1.0430 -1.3581  0.0680
  273PVA    O1146346   1.787   4.019   7.474  0.2328 -0.6692 -0.7802
  273PVA    H6446347   1.814   3.938   7.521  3.0048  1.4993  1.7497
  273PVA    C3346348   1.978   4.037   7.325 -0.0931  0.1165 -0.7899
  273PVA    H6546349   1.969   4.064   7.219  0.1008  0.9002 -0.6111
  273PVA    H6646350   2.036   3.944   7.337  1.3961  1.1849  0.6975
  273PVA    C3446351   2.048   4.157   7.399  0.1457 -0.0667  1.5845
  273PVA    H6746352   1.995   4.249   7.373 -0.1188 -0.3876  0.9594
  273PVA    H6846353   2.043   4.112   7.499  1.2541 -2.0494  0.8151
  273PVA    C3546354   2.199   4.167   7.358  0.8036  0.8760 -1.4888
  273PVA    H6946355   2.207   4.165   7.248 -2.5007 -1.7910 -1.8435
  273PVA    O1246356   2.268   4.051   7.403  0.0858  0.1058  0.5798
  273PVA    H7046357   2.237   3.978   7.347 -0.3561  1.2030 -0.6736
  273PVA    C3646358   2.273   4.296   7.420 -0.9029  0.2359  0.7849
  273PVA    H7146359   2.307   4.268   7.521 -1.6149  0.6691  1.1577
  273PVA    H7246360   2.192   4.369   7.433 -2.5795 -1.6101  1.1363
  273PVA    C3746361   2.390   4.362   7.349 -0.1859  0.1986 -0.6779
  273PVA    H7346362   2.373   4.452   7.288  2.3668  0.4147 -1.1836
  273PVA    H7446363   2.420   4.286   7.276 -2.9949 -0.5497 -1.1587
  273PVA    C3846364   2.516   4.396   7.442  0.1119  1.1097 -0.8930
  273PVA    H7546365   2.550   4.309   7.499 -4.4124  0.6343  1.6131
  273PVA    O1346366   2.476   4.501   7.517 -0.3415 -0.1804  0.3273
  273PVA    H7646367   2.424   4.552   7.453 -1.3262 -2.1809 -0.5394
  273PVA    C3946368   2.644   4.448   7.377 -0.9072  1.4639 -0.5118
  273PVA    H7746369   2.640   4.557   7.366 -0.9671  1.5389  0.2014
  273PVA    H7846370   2.644   4.401   7.278 -0.9555  1.4853 -0.5219
  273PVA    C4046371   2.778   4.420   7.460 -0.6674 -0.3272 -0.2197
  273PVA    H7946372   2.803   4.518   7.504  0.2720 -1.2209  1.3352
  273PVA    H8046373   2.767   4.362   7.552 -1.2545  1.1899  0.7002
  273PVA    C4146374   2.920   4.372   7.394 -1.1161  0.2530  0.6202
  273PVA    H8146375   2.912   4.297   7.315  3.0246 -0.1579  0.3459
  273PVA    O1446376   2.971   4.484   7.329 -0.4100  0.4096  0.7790
  273PVA    H8246377   3.029   4.509   7.403  2.1478  1.5068 -1.4119
  273PVA    C4246378   3.028   4.317   7.487 -0.4134  0.6514 -1.5709
  273PVA    H8346379   3.009   4.217   7.529  0.6835  0.8932 -0.4526
  273PVA    H8446380   3.048   4.379   7.575  0.1306  1.8123 -2.4921
  273PVA    C4346381   3.173   4.264   7.424  0.5192  0.7922  0.5637
  273PVA    H8546382   3.238   4.334   7.369 -1.7352  0.6620 -2.5364
  273PVA    H8646383   3.140   4.210   7.334  1.7498  3.8376 -1.9066
  273PVA    C4446384   3.253   4.183   7.530 -1.2553 -0.5606  0.3595
  273PVA    H8746385   3.279   4.243   7.618  1.0320 -1.9375  0.7324
  273PVA    O1546386   3.199   4.045   7.543 -0.5604  0.4919 -0.1521
  273PVA    H8846387   3.196   4.015   7.636 -2.1681 -0.3674 -0.4302
  273PVA    C4546388   3.392   4.135   7.483 -0.0541 -0.9825  1.0451
  273PVA    H8946389   3.440   4.232   7.465  2.6480 -2.0070  2.1850
  273PVA    H9046390   3.370   4.094   7.383 -0.8510  2.4970 -0.3547
  273PVA    C4646391   3.487   4.059   7.586  0.6153  1.2023 -0.3832
  273PVA    H9146392   3.429   3.975   7.626  1.9155  0.1936 -0.5395
  273PVA    H9246393   3.524   4.124   7.667  0.5195 -1.3720  1.8514
  273PVA    C4746394   3.615   4.004   7.509 -0.0121 -0.7824  0.2073
  273PVA    H9346395   3.581   3.966   7.412 -1.8205  1.0256  0.0763
  273PVA    O1646396   3.683   4.132   7.471  0.1937  0.0672  0.1664
  273PVA    H9446397   3.647   4.199   7.531  1.1260 -1.1029  2.1393
  273PVA    C4846398   3.713   3.897   7.566  1.1527  0.2641 -0.4544
  273PVA    H9546399   3.809   3.921   7.517  0.1187 -0.6166 -3.0927
  273PVA    H9646400   3.749   3.914   7.668  1.9560  2.3148 -1.0259
  273PVA    C4946401   3.684   3.738   7.563 -0.9121 -0.5109 -0.3634
  273PVA    H9746402   3.590   3.736   7.507 -2.4031  1.2491  1.8532
  273PVA    H9846403   3.669   3.722   7.671  0.3602  0.5166  0.0090
  273PVA    C5046404   3.797   3.640   7.511 -0.0365  1.2248  0.2467
  273PVA    H9946405   3.744   3.595   7.426  1.1307  0.7136 -0.2331
  273PVA    O1746406   3.906   3.696   7.440  0.5389 -0.1157 -0.3693
  273PVA   H10046407   3.979   3.696   7.505 -0.7684  0.5220  1.1732
  273PVA    C5146408   3.841   3.513   7.605  0.4492 -0.3146  0.1175
  273PVA   H10146409   3.767   3.491   7.683  0.8263  1.8438  1.1810
  273PVA   H10246410   3.936   3.538   7.654 -0.1931  0.9517  0.7717
  274PVA     C146411   7.654   4.924   0.013 -0.8789 -0.5956 -0.2157
  274PVA     H146412   7.730   5.001   0.033 -1.4754  1.1390 -3.8851
  274PVA     H246413   7.686   4.827   0.051  0.5907 -0.1455 -0.2372
  274PVA     C246414   7.512   4.963   0.066  1.2584 -0.2743  0.1550
  274PVA     H346415   7.447   4.878   0.042  0.1965  0.3392  0.7869
  274PVA     O146416   7.437   5.039   8.068 -0.1180 -0.4753 -0.0906
  274PVA     H446417   7.470   4.992   7.990  1.3138  1.3075 -0.6261
  274PVA     C346418   7.503   5.009   0.220 -0.3275 -0.0543 -0.3945
  274PVA     H546419   7.574   5.093   0.224  1.4472 -1.3059 -2.8419
  274PVA     H646420   7.540   4.928   0.283 -1.2800 -0.4002 -0.2625
  274PVA     C446421   7.367   5.066   0.255  0.1679  0.3427  0.1737
  274PVA     H746422   7.341   5.137   0.176  1.1673 -1.3003 -1.7282
  274PVA     H846423   7.295   4.984   0.254 -0.1179  0.5921 -1.5764
  274PVA     C546424   7.367   5.142   0.395  0.5952 -1.1441  0.5896
  274PVA     H946425   7.422   5.080   0.467  3.5470  1.8292  1.1534
  274PVA     O246426   7.439   5.268   0.380  0.0211  0.4625 -0.2114
  274PVA    H1046427   7.384   5.341   0.347 -0.9795  0.5204  1.5077
  274PVA     C646428   7.229   5.163   0.449 -0.3046 -0.7632  0.5722
  274PVA    H1146429   7.171   5.213   0.370 -1.6394 -2.9013  0.1259
  274PVA    H1246430   7.200   5.064   0.486  0.4257 -1.2590 -0.1549
  274PVA     C746431   7.216   5.273   0.553 -0.4338  0.0562  0.4054
  274PVA    H1346432   7.304   5.270   0.618 -3.6891  1.8234  5.5343
  274PVA    H1446433   7.215   5.366   0.494 -2.4135 -2.5380 -4.2210
  274PVA     C846434   7.078   5.263   0.638 -1.1191 -0.6518 -0.1250
  274PVA    H1546435   7.061   5.157   0.615 -1.5564 -0.1261 -2.5773
  274PVA     O346436   7.108   5.270   0.785  0.0074 -0.1824 -0.1004
  274PVA    H1646437   7.087   5.364   0.800 -4.1340 -0.8999 -0.4683
  274PVA     C946438   6.943   5.354   0.615 -0.2052  0.8058  0.1528
  274PVA    H1746439   6.974   5.459   0.625  0.4302  0.9168 -2.2423
  274PVA    H1846440   6.925   5.362   0.507  1.3841 -1.4395 -0.3518
  274PVA    C1046441   6.812   5.305   0.689  0.1026  0.2101 -0.8535
  274PVA    H1946442   6.831   5.223   0.760  0.7532  2.9828  2.4499
  274PVA    H2046443   6.729   5.285   0.620  1.7917 -2.9815 -2.2025
  274PVA    C1146444   6.752   5.394   0.811 -0.0523  0.4949  0.0047
  274PVA    H2146445   6.817   5.372   0.897 -1.7269 -1.3040  0.8849
  274PVA     O446446   6.747   5.524   0.762  0.3832 -0.7703 -0.1604
  274PVA    H2246447   6.659   5.546   0.728 -2.0120 -3.6906  3.3083
  274PVA    C1246448   6.600   5.373   0.846  0.5031  0.1609 -0.4214
  274PVA    H2346449   6.554   5.315   0.765 -3.0160  2.5437 -0.3354
  274PVA    H2446450   6.612   5.306   0.932 -1.9742 -0.4730 -0.5191
  274PVA    C1346451   6.498   5.484   0.901  0.2301 -0.4249 -0.2957
  274PVA    H2546452   6.534   5.584   0.873 -0.5297 -0.3191 -0.9644
  274PVA    H2646453   6.495   5.460   1.008  0.3062 -2.9834 -0.8067
  274PVA    C1446454   6.359   5.482   0.841 -0.4884  0.3264  0.0592
  274PVA    H2746455   6.354   5.495   0.732 -2.0908  0.6883  0.1561
  274PVA     O546456   6.305   5.356   0.875  0.4745  0.8973  0.6233
  274PVA    H2846457   6.356   5.312   0.946 -2.6830 -4.7361 -0.0766
  274PVA    C1546458   6.281   5.603   0.898 -1.5275 -0.0632 -0.5341
  274PVA    H2946459   6.333   5.699   0.883 -2.4784  0.0930 -3.5010
  274PVA    H3046460   6.279   5.597   1.008 -3.6138 -1.1609 -0.5870
  274PVA    C1646461   6.129   5.614   0.846 -0.0362  0.6788 -0.0497
  274PVA    H3146462   6.094   5.510   0.856 -1.1864  0.9927 -0.6522
  274PVA    H3246463   6.083   5.686   0.914  2.6415  0.5028  2.1197
  274PVA    C1746464   6.088   5.634   0.695 -0.3668 -1.0145 -0.3592
  274PVA    H3346465   6.142   5.719   0.653  0.0940 -2.7213 -3.5556
  274PVA     O646466   6.133   5.524   0.616 -0.2036  1.1838  0.5712
  274PVA    H3446467   6.164   5.461   0.684 -0.6265  3.5728  3.1878
  274PVA    C1846468   5.933   5.652   0.661  0.3943  0.6568 -0.2578
  274PVA    H3546469   5.884   5.589   0.736 -2.1047  3.0239  0.2402
  274PVA    H3646470   5.896   5.749   0.697 -4.1083  0.0562 -2.4857
  274PVA    C1946471   5.881   5.626   0.512 -0.8040  0.1459  0.2981
  274PVA    H3746472   5.924   5.528   0.488 -3.0493 -1.7554  3.1480
  274PVA    H3846473   5.936   5.674   0.431  0.2520 -1.6098 -0.0750
  274PVA    C2046474   5.730   5.636   0.505  0.6582  1.3762 -0.2897
  274PVA    H3946475   5.695   5.662   0.405  1.3310 -1.9627 -1.5361
  274PVA     O746476   5.694   5.744   0.590  0.8415  1.1560 -0.4365
  274PVA    H4046477   5.722   5.833   0.566  2.4565  0.3264 -1.7951
  274PVA    C2146478   5.671   5.496   0.541  0.3921  0.3213 -0.0856
  274PVA    H4146479   5.663   5.470   0.647 -0.9863 -0.4339 -0.3545
  274PVA    H4246480   5.729   5.416   0.493 -0.3752  1.9149 -3.9964
  274PVA    C2246481   5.515   5.490   0.501  0.0773 -0.8079  1.1389
  274PVA    H4346482   5.453   5.542   0.575 -0.8144  3.4934 -2.2103
  274PVA    H4446483   5.508   5.547   0.408  0.7021 -1.2729  0.7994
  274PVA    C2346484   5.459   5.345   0.487  0.7286 -0.8873  0.4730
  274PVA    H4546485   5.355   5.370   0.512  0.9880  0.4138  0.3381
  274PVA     O846486   5.493   5.263   0.598  0.3671 -0.5953 -0.7521
  274PVA    H4646487   5.590   5.273   0.599  0.2386  2.5597 -2.6949
  274PVA    C2446488   5.497   5.284   0.354 -0.0523  1.3719 -0.0596
  274PVA    H4746489   5.420   5.334   0.294 -3.4959  0.6603  3.3896
  274PVA    H4846490   5.599   5.312   0.323 -0.4859  1.5022 -1.4348
  274PVA    C2546491   5.474   5.133   0.325  0.0691  0.4579  0.1557
  274PVA    H4946492   5.377   5.121   0.275 -0.3593  2.0349  0.5581
  274PVA    H5046493   5.464   5.070   0.414  2.9911 -2.6282 -1.4776
  274PVA    C2646494   5.580   5.074   0.229 -0.7053 -0.8823  0.3234
  274PVA    H5146495   5.589   5.147   0.147  1.3275  0.6013  1.7658
  274PVA     O946496   5.707   5.065   0.289 -0.3311 -0.0222  1.4256
  274PVA    H5246497   5.704   5.001   0.363  1.7501 -1.2485  0.5384
  274PVA    C2746498   5.514   4.945   0.171 -0.5828 -0.2972 -0.2709
  274PVA    H5346499   5.542   4.869   0.245 -3.2162  1.3172  2.5839
  274PVA    H5446500   5.405   4.955   0.166 -0.3406  2.5172 -1.4246
  274PVA    C2846501   5.560   4.907   0.017  1.0955  0.6833 -0.8927
  274PVA    H5546502   5.530   4.996   8.057  1.6792 -0.5104 -3.2023
  274PVA    H5646503   5.668   4.889   0.024  0.7923 -0.8972  0.3622
  274PVA    C2946504   5.489   4.788   8.054  0.0822  1.3006 -0.9056
  274PVA    H5746505   5.383   4.809   8.068 -0.5371 -0.3624 -2.6143
  274PVA    O1046506   5.534   4.660   0.010 -0.7370  0.4790  0.7852
  274PVA    H5846507   5.463   4.597   8.087 -0.4633 -2.0949  6.2146
  274PVA    C3046508   5.494   4.786   7.901 -0.2839  0.8559 -0.7636
  274PVA    H5946509   5.436   4.872   7.865 -0.2365  0.5321 -1.6506
  274PVA    H6046510   5.594   4.819   7.869  0.4988 -1.3536 -0.7785
  274PVA    C3146511   5.428   4.658   7.827 -0.1719  0.0733  0.0064
  274PVA    H6146512   5.324   4.674   7.860  0.4794  2.0586  1.2800
  274PVA    H6246513   5.469   4.564   7.865 -1.3296  0.5116  2.6434
  274PVA    C3246514   5.431   4.664   7.667  0.8614 -0.5744  0.2835
  274PVA    H6346515   5.391   4.759   7.629  4.0807 -0.5810 -3.8644
  274PVA    O1146516   5.561   4.639   7.631  0.0278  0.4312  0.6073
  274PVA    H6446517   5.594   4.727   7.607 -5.8918  2.4708 -2.0947
  274PVA    C3346518   5.338   4.556   7.603  0.3058 -0.1050  0.5749
  274PVA    H6546519   5.238   4.560   7.648  1.1341 -0.3062  2.4924
  274PVA    H6646520   5.375   4.459   7.639  2.0981 -0.0795 -1.0231
  274PVA    C3446521   5.331   4.530   7.452 -0.2235 -1.0062 -0.2731
  274PVA    H6746522   5.318   4.628   7.405  2.2456 -0.7814 -0.6163
  274PVA    H6846523   5.431   4.495   7.420 -0.7327 -2.1255 -0.7086
  274PVA    C3546524   5.238   4.422   7.383 -0.1353  0.3522 -0.5069
  274PVA    H6946525   5.143   4.431   7.437  0.5338 -1.4923  1.0921
  274PVA    O1246526   5.292   4.294   7.408 -0.4555  0.5405 -0.8255
  274PVA    H7046527   5.353   4.283   7.333 -0.4634  3.2193 -1.3297
  274PVA    C3646528   5.210   4.450   7.232  0.4168  0.4055  0.9671
  274PVA    H7146529   5.133   4.528   7.229 -0.9190 -0.8398  1.6967
  274PVA    H7246530   5.305   4.471   7.181  1.0358 -2.3723  0.7988
  274PVA    C3746531   5.145   4.325   7.169  0.8521 -0.4004 -0.1507
  274PVA    H7346532   5.070   4.278   7.234 -1.1190 -2.3398 -3.5389
  274PVA    H7446533   5.219   4.244   7.163  0.7295 -0.5874  0.6434
  274PVA    C3846534   5.081   4.347   7.035 -0.2498 -0.5972 -0.4318
  274PVA    H7546535   5.019   4.437   7.029  1.4636  0.7776  1.3382
  274PVA    O1346536   5.190   4.371   6.939  0.0441  0.0223 -0.8817
  274PVA    H7646537   5.245   4.291   6.943  0.2593  0.2187  1.5813
  274PVA    C3946538   4.999   4.223   6.982  0.4355  0.8686 -0.6438
  274PVA    H7746539   5.067   4.138   6.982  0.2485  0.5852  2.8154
  274PVA    H7846540   4.971   4.244   6.878 -1.6409 -0.3811 -0.3906
  274PVA    C4046541   4.866   4.175   7.042 -0.1896  0.7392  0.0586
  274PVA    H7946542   4.893   4.121   7.134  3.4070  1.0990 -0.6528
  274PVA    H8046543   4.812   4.267   7.069 -0.5233  0.6772 -0.3695
  274PVA    C4146544   4.770   4.088   6.961 -0.3136 -0.1685 -0.1048
  274PVA    H8146545   4.746   4.141   6.868  0.6428  1.0358  0.3186
  274PVA    O1446546   4.836   3.960   6.929 -0.8795  0.5251  0.0968
  274PVA    H8246547   4.851   3.930   7.020  2.3585 -0.7382 -0.7496
  274PVA    C4246548   4.636   4.062   7.029 -0.3105  0.4091 -0.2922
  274PVA    H8346549   4.668   4.006   7.118 -0.4863  0.1194 -0.4127
  274PVA    H8446550   4.580   4.156   7.039 -2.9197 -0.6790 -3.2399
  274PVA    C4346551   4.554   3.955   6.954 -0.6305  0.5290 -0.3023
  274PVA    H8546552   4.602   3.859   6.977 -2.1018  0.1671  1.4978
  274PVA    H8646553   4.549   3.975   6.846  2.5634  0.4618 -0.5604
  274PVA    C4446554   4.406   3.970   6.991 -0.3870  0.8892  0.5507
  274PVA    H8746555   4.371   4.048   6.922 -0.7584  1.9903  1.9307
  274PVA    O1546556   4.401   4.010   7.132 -0.1926 -0.8912  0.2914
  274PVA    H8846557   4.417   3.921   7.168  0.6509 -0.1992  1.7030
  274PVA    C4546558   4.316   3.843   6.957 -0.0343  0.4312  0.4643
  274PVA    H8946559   4.380   3.758   6.985 -0.1207 -0.0533 -0.7705
  274PVA    H9046560   4.281   3.839   6.853 -4.1139  2.2583  1.5758
  274PVA    C4646561   4.177   3.832   7.027  0.9369 -0.0066 -0.6581
  274PVA    H9146562   4.174   3.840   7.137 -1.7876 -2.6193 -0.4113
  274PVA    H9246563   4.104   3.911   7.005 -2.6395 -2.2915  1.9216
  274PVA    C4746564   4.111   3.700   7.016  0.7061 -0.8819  0.3151
  274PVA    H9346565   4.026   3.694   7.084  1.9439 -2.0809  1.8287
  274PVA    O1646566   4.057   3.690   6.881  0.1083  0.0738 -0.4487
  274PVA    H9446567   4.008   3.606   6.882 -0.8258  0.5350 -2.2759
  274PVA    C4846568   4.197   3.586   7.062  0.5942  0.9424 -0.6159
  274PVA    H9546569   4.256   3.571   6.971 -2.2098 -0.8324 -2.3210
  274PVA    H9646570   4.248   3.603   7.157 -0.8994 -1.0010  0.6182
  274PVA    C4946571   4.113   3.461   7.083  0.2500  1.3719 -0.3997
  274PVA    H9746572   4.161   3.388   7.016  0.7956  1.5043 -0.1565
  274PVA    H9846573   4.012   3.472   7.041  1.0827  0.3998 -2.8497
  274PVA    C5046574   4.100   3.399   7.224  0.2278 -0.2102 -0.4022
  274PVA    H9946575   4.038   3.478   7.270 -3.4890 -2.0531 -1.8746
  274PVA    O1746576   4.223   3.377   7.277 -0.4844 -0.0267 -0.4419
  274PVA   H10046577   4.267   3.301   7.233  0.1475  1.8560 -3.3392
  274PVA    C5146578   4.009   3.279   7.249 -0.2090  0.1660  0.4738
  274PVA   H10146579   4.043   3.197   7.185 -0.0641 -0.1054  0.8900
  274PVA   H10246580   3.910   3.307   7.212 -0.8468 -2.6854 -0.1990
  275PVA     C146581   0.079   4.614   7.744 -0.6140  0.0245 -0.1335
  275PVA     H146582   0.069   4.566   7.842 -2.5557  0.9234  0.1750
  275PVA     H246583   0.184   4.645   7.733 -0.1260 -1.4277  0.2767
  275PVA     C246584   0.032   4.513   7.626  0.7002 -0.5990  1.6228
  275PVA     H346585   7.716   4.446   7.656 -1.4538  1.2124  0.1470
  275PVA     O146586   0.005   4.573   7.499  0.5775 -0.4651 -0.6942
  275PVA     H446587   7.761   4.501   7.434  0.5269  1.5551 -3.0558
  275PVA     C346588   0.143   4.408   7.595  0.1562  0.1066  0.0112
  275PVA     H546589   0.236   4.453   7.558  0.2096  2.9523  3.1031
  275PVA     H646590   0.186   4.385   7.693  1.0837 -0.5219 -0.5209
  275PVA     C446591   0.105   4.282   7.511  1.1611  1.0094  0.2624
  275PVA     H746592   0.006   4.242   7.534  1.0590  0.6766 -0.6992
  275PVA     H846593   0.095   4.307   7.404  0.0503 -1.0718 -0.1764
  275PVA     C546594   0.198   4.151   7.535  0.9162 -0.4095  1.0291
  275PVA     H946595   0.195   4.133   7.644  2.1389  0.4191  1.2274
  275PVA     O246596   0.330   4.207   7.531  0.1208 -0.2994 -0.6676
  275PVA    H1046597   0.306   4.300   7.512  0.6193  0.0433  0.3121
  275PVA     C646598   0.167   4.011   7.468 -0.5916  0.9145  0.2105
  275PVA    H1146599   0.170   3.929   7.541  1.4716  2.8253  2.4853
  275PVA    H1246600   0.082   4.022   7.400 -0.9725 -0.9575  0.3383
  275PVA     C746601   0.294   3.967   7.381 -0.0018 -0.7729 -1.1653
  275PVA    H1346602   0.368   3.912   7.439  2.1601  1.1451 -1.9434
  275PVA    H1446603   0.342   4.052   7.331 -0.9082 -0.8205 -2.1545
  275PVA     C846604   0.275   3.859   7.275  1.2975 -0.9206  0.7679
  275PVA    H1546605   0.219   3.913   7.198  2.4136 -0.2631  0.3960
  275PVA     O346606   0.209   3.729   7.325 -0.8183 -0.1796  0.2904
  275PVA    H1646607   0.129   3.709   7.273  0.4005 -3.7769 -0.5016
  275PVA     C946608   0.408   3.829   7.191  1.0350  0.2159 -0.7019
  275PVA    H1746609   0.474   3.915   7.175  1.1948  0.6491  1.8456
  275PVA    H1846610   0.362   3.791   7.099  2.7333 -0.7206 -1.2078
  275PVA    C1046611   0.480   3.704   7.241 -1.4640 -0.4395 -0.8953
  275PVA    H1946612   0.539   3.724   7.332 -1.2730 -2.5515 -0.4995
  275PVA    H2046613   0.419   3.616   7.265 -0.6212 -2.0495 -4.1042
  275PVA    C1146614   0.582   3.634   7.145 -0.4671  1.2852 -0.5569
  275PVA    H2146615   0.627   3.711   7.081  3.6039  1.7540  2.4802
  275PVA     O446616   0.509   3.553   7.063  0.2393 -0.1293 -0.4461
  275PVA    H2246617   0.449   3.487   7.101 -1.2157 -0.6810 -3.3692
  275PVA    C1246618   0.708   3.550   7.217  0.2216 -0.5194  0.2627
  275PVA    H2346619   0.749   3.622   7.289 -1.4441  0.8752 -0.1000
  275PVA    H2446620   0.654   3.479   7.281 -2.0886  1.9401  1.2513
  275PVA    C1346621   0.822   3.476   7.130 -0.1943 -0.5150 -1.1216
  275PVA    H2546622   0.772   3.399   7.069 -1.0320 -2.6124  1.9927
  275PVA    H2646623   0.842   3.542   7.044  3.4237 -0.5691 -0.4838
  275PVA    C1446624   0.950   3.419   7.195  0.2411 -0.1084  0.2573
  275PVA    H2746625   0.998   3.504   7.246 -2.3177  1.0960  0.8059
  275PVA     O546626   1.047   3.388   7.091  0.7942 -0.1998  0.2842
  275PVA    H2846627   1.072   3.460   7.031  5.3054 -2.4833 -1.0111
  275PVA    C1546628   0.940   3.287   7.279 -0.1162  0.0920 -0.4997
  275PVA    H2946629   0.907   3.308   7.381 -3.2404  1.2529 -1.6533
  275PVA    H3046630   0.846   3.246   7.240 -1.0589  0.0921  1.6407
  275PVA    C1646631   1.047   3.170   7.274 -0.0750  0.2196  0.5069
  275PVA    H3146632   1.119   3.205   7.350 -0.4424  0.5772  0.6924
  275PVA    H3246633   1.079   3.166   7.169 -2.9552  1.3515 -0.5005
  275PVA    C1746634   0.994   3.020   7.311 -0.5749 -0.5221  0.3305
  275PVA    H3346635   0.925   2.995   7.229  1.7207 -1.4016 -1.4346
  275PVA     O646636   0.943   3.024   7.442 -0.4126 -0.4869  0.6149
  275PVA    H3446637   1.001   3.087   7.488  0.1003  0.3382 -1.0862
  275PVA    C1846638   1.109   2.915   7.294 -0.6455  0.7501  0.0569
  275PVA    H3546639   1.153   2.938   7.196  2.7517 -1.2487  0.9370
  275PVA    H3646640   1.190   2.925   7.367 -0.2325 -0.0465 -0.2791
  275PVA    C1946641   1.048   2.777   7.303  0.6263  0.4739 -0.6907
  275PVA    H3746642   0.957   2.775   7.241 -0.5613  2.0252  0.8802
  275PVA    H3846643   0.996   2.758   7.397 -0.2645  2.3414 -0.7630
  275PVA    C2046644   1.132   2.651   7.252 -0.3386  0.3687  1.0016
  275PVA    H3946645   1.068   2.595   7.182 -5.2696 -1.3560  6.0811
  275PVA     O746646   1.235   2.703   7.167  0.0799 -0.1775 -0.9168
  275PVA    H4046647   1.217   2.671   7.078 -0.4462 -2.5247 -0.0410
  275PVA    C2146648   1.197   2.546   7.345  0.2777  0.0286 -0.1432
  275PVA    H4146649   1.129   2.510   7.424 -2.0609  1.9036 -1.1902
  275PVA    H4246650   1.268   2.590   7.415 -1.0996  0.2739  1.1682
  275PVA    C2246651   1.244   2.413   7.266  0.1707  0.2514 -0.3143
  275PVA    H4346652   1.185   2.410   7.173  1.7603  3.8519 -1.5901
  275PVA    H4446653   1.343   2.451   7.242 -0.9660  5.8220  2.2887
  275PVA    C2346654   1.230   2.274   7.335 -1.0835  0.6087  0.3792
  275PVA    H4546655   1.143   2.294   7.399 -2.7205  0.5383 -1.7331
  275PVA     O846656   1.338   2.258   7.443  0.4597  0.0001  0.2963
  275PVA    H4646657   1.419   2.220   7.403 -0.3098  2.0420 -3.7251
  275PVA    C2446658   1.222   2.145   7.248 -0.6645  0.4333 -0.4795
  275PVA    H4746659   1.233   2.166   7.141  0.4500 -3.7210 -1.3307
  275PVA    H4846660   1.295   2.080   7.297 -2.4877 -1.2528  0.1574
  275PVA    C2546661   1.092   2.073   7.263 -0.3314 -0.4072  0.0318
  275PVA    H4946662   1.074   2.081   7.371  2.2804  4.0978  0.3483
  275PVA    H5046663   1.007   2.134   7.230  1.4008  0.5878 -2.9814
  275PVA    C2646664   1.083   1.932   7.200 -0.6572 -0.1463 -0.0999
  275PVA    H5146665   1.108   1.943   7.093 -0.2283  0.1984  0.0366
  275PVA     O946666   1.195   1.867   7.264  0.0434 -0.2800  0.4238
  275PVA    H5246667   1.277   1.918   7.250 -1.1907  1.6531 -0.1350
  275PVA    C2746668   0.953   1.845   7.183  0.7064 -0.7733 -0.4325
  275PVA    H5346669   0.927   1.779   7.267 -1.2327 -1.5336 -1.5665
  275PVA    H5446670   0.868   1.914   7.183  0.0073 -1.5788  1.3650
  275PVA    C2846671   0.933   1.759   7.044  0.9508  0.4625  0.1134
  275PVA    H5546672   0.851   1.813   6.995 -0.1087 -0.0725  1.2658
  275PVA    H5646673   1.015   1.775   6.973 -0.8816  1.3085 -1.9430
  275PVA    C2946674   0.889   1.603   7.057  0.1737 -0.0632  0.8403
  275PVA    H5746675   0.981   1.547   7.079  2.3375  2.8430 -0.0584
  275PVA    O1046676   0.799   1.579   7.161  0.2737 -0.3247 -0.7769
  275PVA    H5846677   0.810   1.486   7.187  1.9694  0.2701  0.8890
  275PVA    C3046678   0.824   1.532   6.928 -0.0646  0.7228  0.1744
  275PVA    H5946679   0.852   1.569   6.829 -1.2446 -0.8416 -0.7763
  275PVA    H6046680   0.720   1.566   6.938 -0.0452  1.1366 -0.9574
  275PVA    C3146681   0.839   1.376   6.935 -0.3229 -0.0214  1.0628
  275PVA    H6146682   0.946   1.366   6.913  0.1375  1.2795  2.4646
  275PVA    H6246683   0.824   1.333   7.035  1.6019 -2.0530  0.5523
  275PVA    C3246684   0.748   1.272   6.846 -0.1489 -1.0933  0.3028
  275PVA    H6346685   0.647   1.273   6.888 -0.4884  0.5069 -0.4605
  275PVA    O1146686   0.747   1.343   6.721 -0.1045  0.1838 -0.2184
  275PVA    H6446687   0.683   1.293   6.667 -1.9525 -2.5199  4.0196
  275PVA    C3346688   0.792   1.116   6.830 -0.2610  0.0873  1.3305
  275PVA    H6546689   0.878   1.078   6.886 -1.5542 -1.6354  2.2631
  275PVA    H6646690   0.804   1.107   6.721  1.3093  0.4678  1.4483
  275PVA    C3446691   0.679   1.020   6.864 -0.7294 -0.2967 -0.3711
  275PVA    H6746692   0.639   1.049   6.962 -3.4159  1.8297 -1.9575
  275PVA    H6846693   0.598   1.045   6.794  1.6837  2.3654 -2.4495
  275PVA    C3546694   0.709   0.866   6.865 -0.8167 -1.0358 -0.0351
  275PVA    H6946695   0.682   0.851   6.760 -1.5652 -0.5592  0.0850
  275PVA    O1246696   0.844   0.830   6.888 -0.1646  0.3523  0.1019
  275PVA    H7046697   0.833   0.761   6.955 -0.6374  1.0634  0.7808
  275PVA    C3646698   0.641   0.775   6.967  0.2589 -0.5738  0.2693
  275PVA    H7146699   0.550   0.820   7.008 -0.4637 -2.1073  0.4325
  275PVA    H7246700   0.609   0.702   6.891 -0.2570 -0.2506  0.1696
  275PVA    C3746701   0.693   0.682   7.085  0.1248  1.2208 -1.0172
  275PVA    H7346702   0.778   0.719   7.144  1.9433 -1.8278 -1.4390
  275PVA    H7446703   0.737   0.596   7.032 -4.3205 -2.3762  0.4477
  275PVA    C3846704   0.578   0.646   7.185 -1.3883 -0.5958  0.2942
  275PVA    H7546705   0.502   0.725   7.182  0.1861  0.9458 -1.1564
  275PVA    O1346706   0.516   0.521   7.159  0.0120 -0.6890  0.0588
  275PVA    H7646707   0.430   0.514   7.203 -0.1622 -1.9655 -0.4229
  275PVA    C3946708   0.630   0.618   7.340  0.1896 -0.7809 -0.0670
  275PVA    H7746709   0.707   0.695   7.352 -0.1060 -0.7189  1.7020
  275PVA    H7846710   0.673   0.517   7.340 -2.5368 -2.0505  1.3022
  275PVA    C4046711   0.532   0.619   7.464 -0.4014  1.4051 -0.4971
  275PVA    H7946712   0.440   0.665   7.426 -0.2042  0.9534 -1.5691
  275PVA    H8046713   0.491   0.520   7.485  1.5219  0.1084 -2.4732
  275PVA    C4146714   0.594   0.704   7.587  0.3370  0.1011  0.4640
  275PVA    H8146715   0.657   0.780   7.540 -1.4509  1.8645  0.7335
  275PVA    O1446716   0.685   0.618   7.651  0.8111 -0.1341 -0.2600
  275PVA    H8246717   0.733   0.584   7.573  1.8593  1.0207 -0.1522
  275PVA    C4246718   0.488   0.758   7.695 -0.0471 -0.2151  0.4126
  275PVA    H8346719   0.406   0.786   7.627  0.6059  3.2371  0.9053
  275PVA    H8446720   0.460   0.665   7.745  2.1871 -0.1698  1.8899
  275PVA    C4346721   0.537   0.876   7.791  0.3527 -1.1293  0.0844
  275PVA    H8546722   0.642   0.872   7.822  0.2645  1.3896  1.0042
  275PVA    H8646723   0.528   0.960   7.722 -4.3385 -3.3090 -2.4630
  275PVA    C4446724   0.460   0.918   7.921  0.1562  0.7127 -0.0646
  275PVA    H8746725   0.383   0.990   7.891 -0.6985  0.3630  1.2279
  275PVA    O1546726   0.421   0.814   7.998  0.3396  0.2852  0.5246
  275PVA    H8846727   0.498   0.755   7.992 -0.6983 -1.2551 -6.8967
  275PVA    C4546728   0.544   1.006   8.026  0.0784 -0.0431  0.6982
  275PVA    H8946729   0.639   1.032   7.979 -1.4186 -0.4609 -2.9129
  275PVA    H9046730   0.600   0.944   8.096 -0.0899  1.3903  2.1487
  275PVA    C4646731   0.479   1.119   0.011  0.0936  0.1497 -0.0315
  275PVA    H9146732   0.385   1.155   8.064  0.6207 -2.7514 -4.0353
  275PVA    H9246733   0.463   1.053   0.098  1.1328 -1.9571 -1.3612
  275PVA    C4746734   0.566   1.236   0.056 -0.6284  0.1787  0.0479
  275PVA    H9346735   0.608   1.286   8.065  4.4001  0.9587  2.5198
  275PVA    O1646736   0.689   1.204   0.104  0.1393 -1.4074 -0.7290
  275PVA    H9446737   0.738   1.279   0.066 -0.5058 -1.8985 -2.6097
  275PVA    C4846738   0.493   1.340   0.154 -0.4164  0.2084 -0.6156
  275PVA    H9546739   0.413   1.292   0.213 -0.4635  1.2781  0.2317
  275PVA    H9646740   0.438   1.390   0.074  0.7546  3.9537  0.7381
  275PVA    C4946741   0.577   1.437   0.257 -0.1965  0.5480 -0.1184
  275PVA    H9746742   0.662   1.381   0.298 -0.2448  0.6779  0.1684
  275PVA    H9846743   0.632   1.511   0.199  0.2886  1.1074  1.0141
  275PVA    C5046744   0.490   1.517   0.363  0.3550 -0.3789  1.8817
  275PVA    H9946745   0.432   1.460   0.437 -1.5387 -0.7478  0.2000
  275PVA    O1746746   0.412   1.609   0.303  0.3888 -0.4220 -0.1638
  275PVA   H10046747   0.326   1.568   0.282  0.2956 -0.6418  0.6184
  275PVA    C5146748   0.595   1.597   0.439  0.2135 -0.5694 -0.8104
  275PVA   H10146749   0.676   1.649   0.386 -1.9023  3.2154 -0.6716
  275PVA   H10246750   0.651   1.514   0.484  2.0033  0.8424 -0.3138
  276PVA     C146751   3.484   2.457   7.941 -0.1568  0.3164 -0.3716
  276PVA     H146752   3.411   2.539   7.948 -0.2957  0.2518 -1.0219
  276PVA     H246753   3.418   2.370   7.939 -0.8845  0.8417  0.2032
  276PVA     C246754   3.548   2.443   8.085 -0.7547 -0.1999  0.6915
  276PVA     H346755   3.619   2.363   8.061 -2.2875 -0.9379 -1.6640
  276PVA     O146756   3.644   2.541   0.017 -0.3170 -0.3091 -1.2161
  276PVA     H446757   3.685   2.573   8.032  0.9413  3.4574  0.6454
  276PVA     C346758   3.459   2.411   0.115  0.2651  1.9360  0.2070
  276PVA     H546759   3.433   2.304   0.118  0.4668  1.8690  3.3470
  276PVA     H646760   3.367   2.470   0.106  0.1536  1.4809 -1.9892
  276PVA     C446761   3.503   2.435   0.266  0.1658  0.3036 -0.6108
  276PVA     H746762   3.593   2.373   0.277 -3.0294 -4.9471 -0.4213
  276PVA     H846763   3.528   2.542   0.272 -2.1212  0.8158  1.5914
  276PVA     C546764   3.403   2.384   0.389 -0.8341 -0.3249 -1.0875
  276PVA     H946765   3.338   2.322   0.325 -2.0162  1.4618 -1.7013
  276PVA     O246766   3.320   2.491   0.438  0.1633  0.7452 -0.8566
  276PVA    H1046767   3.381   2.558   0.473  2.8839 -1.8597 -0.2082
  276PVA     C646768   3.442   2.300   0.519 -0.5668 -0.6360 -0.8779
  276PVA    H1146769   3.544   2.260   0.511 -1.6185 -3.4613 -1.0367
  276PVA    H1246770   3.450   2.380   0.594 -3.3468  0.7553 -1.9306
  276PVA     C746771   3.342   2.183   0.561 -0.6477  0.2051  0.9068
  276PVA    H1346772   3.358   2.104   0.486 -2.3879 -2.6353  3.2586
  276PVA    H1446773   3.246   2.228   0.532  1.9693  2.3665 -6.6653
  276PVA     C846774   3.346   2.120   0.706  0.5622 -0.1815  0.3379
  276PVA    H1546775   3.321   2.197   0.781  0.5234  0.9749 -0.8247
  276PVA     O346776   3.478   2.124   0.757  0.8062  0.1632 -0.0096
  276PVA    H1646777   3.534   2.093   0.683 -0.1196 -0.8010 -0.3294
  276PVA     C946778   3.251   1.997   0.742 -0.5962  0.0679 -0.4874
  276PVA    H1746779   3.291   1.912   0.685 -2.3170 -2.1811  1.4337
  276PVA    H1846780   3.162   2.006   0.679 -1.7564 -0.0808  1.0628
  276PVA    C1046781   3.222   1.947   0.900  0.3603 -0.6772  0.1939
  276PVA    H1946782   3.291   2.011   0.957  0.3077  1.8631 -2.3651
  276PVA    H2046783   3.127   1.993   0.933  0.4909  1.9762 -2.6653
  276PVA    C1146784   3.236   1.799   0.945 -0.1639  0.6156  0.9269
  276PVA    H2146785   3.333   1.751   0.929  0.9351  3.3975 -1.7533
  276PVA     O446786   3.148   1.727   0.861  0.1469 -0.0719 -0.7000
  276PVA    H2246787   3.191   1.646   0.827  4.9793  3.3006 -3.9895
  276PVA    C1246788   3.183   1.784   1.093 -0.3305  0.0233  1.1822
  276PVA    H2346789   3.073   1.788   1.086 -0.4350 -1.0573  1.8319
  276PVA    H2446790   3.208   1.872   1.153  1.3547  0.4101 -0.0438
  276PVA    C1346791   3.223   1.649   1.164  0.9957 -0.7239  0.1021
  276PVA    H2546792   3.331   1.642   1.178  0.8973 -0.3132  1.2307
  276PVA    H2646793   3.187   1.563   1.107  2.5194 -1.3087 -0.0227
  276PVA    C1446794   3.156   1.632   1.311 -0.3635 -1.1037  0.0573
  276PVA    H2746795   3.050   1.655   1.320 -0.3819 -1.3842  0.6079
  276PVA     O546796   3.211   1.715   1.408 -0.1795 -0.5707  0.3947
  276PVA    H2846797   3.169   1.742   1.492  0.3859  4.0720 -0.5260
  276PVA    C1546798   3.164   1.487   1.367  0.2076 -0.4475  0.3405
  276PVA    H2946799   3.269   1.456   1.361  1.7913  3.9865  1.4491
  276PVA    H3046800   3.111   1.424   1.294 -0.1304 -0.6574  0.7568
  276PVA    C1646801   3.085   1.449   1.502 -0.5164 -0.0068 -0.3542
  276PVA    H3146802   3.136   1.491   1.589  3.0134 -4.9225  0.3581
  276PVA    H3246803   2.988   1.501   1.501 -1.0928 -1.0209  0.1724
  276PVA    C1746804   3.074   1.297   1.532  1.1440  0.4034 -0.1051
  276PVA    H3346805   2.991   1.271   1.465  0.2313  0.3225  1.0301
  276PVA     O646806   3.191   1.225   1.484 -1.0147 -1.5670 -0.4224
  276PVA    H3446807   3.199   1.274   1.400 -0.4503  2.3073  1.6671
  276PVA    C1846808   3.059   1.262   1.692  1.1942  1.2929 -0.7886
  276PVA    H3546809   3.156   1.247   1.741 -1.6128 -5.2601  4.3118
  276PVA    H3646810   3.030   1.356   1.740 -0.9048  0.6702 -0.7279
  276PVA    C1946811   2.956   1.149   1.748  0.1486  0.2048  1.6244
  276PVA    H3746812   2.989   1.062   1.690 -2.0262  2.1293 -2.9273
  276PVA    H3846813   2.859   1.172   1.702  0.0272  1.0496  2.2957
  276PVA    C2046814   2.915   1.127   1.900  0.4618 -0.2503 -0.2688
  276PVA    H3946815   2.958   1.211   1.955 -1.4134  1.1936 -0.8894
  276PVA     O746816   2.960   0.994   1.943 -0.4053  0.0361 -0.0678
  276PVA    H4046817   2.912   0.945   1.874 -2.5380  2.4566 -0.4440
  276PVA    C2146818   2.763   1.122   1.937 -0.5519  0.8086 -0.2803
  276PVA    H4146819   2.722   1.028   1.897  0.3312  0.3122 -0.0255
  276PVA    H4246820   2.710   1.189   1.867 -2.6602 -2.2151 -1.8341
  276PVA    C2246821   2.720   1.139   2.094  0.5994  0.2327  0.3863
  276PVA    H4346822   2.785   1.207   2.150  1.7732  0.4179 -1.1597
  276PVA    H4446823   2.745   1.041   2.136  2.9868 -1.3571 -4.0699
  276PVA    C2346824   2.564   1.161   2.105 -0.4338 -0.4827  1.1909
  276PVA    H4546825   2.525   1.119   2.011  5.8886 -1.0544 -1.7384
  276PVA     O846826   2.531   1.297   2.083  0.7286  0.1355  1.0730
  276PVA    H4646827   2.621   1.331   2.098  0.4737 -0.1985  3.9189
  276PVA    C2446828   2.481   1.108   2.227  1.2107 -1.8465  1.0953
  276PVA    H4746829   2.524   1.014   2.263  2.6548 -0.5560  2.9194
  276PVA    H4846830   2.502   1.194   2.292  2.4212  2.5522 -4.2821
  276PVA    C2546831   2.317   1.095   2.223 -0.4095 -0.2161  0.3062
  276PVA    H4946832   2.281   1.017   2.155  2.7249 -0.5987 -1.1368
  276PVA    H5046833   2.281   1.183   2.167  3.3435  0.1644 -1.8670
  276PVA    C2646834   2.245   1.075   2.360  0.5926  1.0698 -0.3280
  276PVA    H5146835   2.306   1.125   2.437 -0.2328 -3.0785  3.4601
  276PVA     O946836   2.237   0.935   2.386 -0.4631  0.1177  0.3267
  276PVA    H5246837   2.165   0.897   2.333 -0.9672 -0.9374  1.7051
  276PVA    C2746838   2.099   1.119   2.390  0.0131  0.4655  0.2551
  276PVA    H5346839   2.028   1.055   2.336  0.1974  0.4468  0.0330
  276PVA    H5446840   2.097   1.204   2.320 -0.5798 -1.5857 -2.3573
  276PVA    C2846841   2.052   1.145   2.539  1.1166  0.4213  0.4839
  276PVA    H5546842   2.019   1.048   2.579  4.0789  0.0482  2.3193
  276PVA    H5646843   2.118   1.190   2.613  1.0608  2.3592 -0.5946
  276PVA    C2946844   1.922   1.233   2.534 -0.5938 -0.8739  1.0259
  276PVA    H5746845   1.849   1.163   2.491 -0.5084  0.2428 -1.0630
  276PVA    O1046846   1.939   1.339   2.444  0.5726 -0.3247 -0.8505
  276PVA    H5846847   2.021   1.378   2.479  0.2198 -3.2845  4.2038
  276PVA    C3046848   1.856   1.285   2.665 -0.1283 -0.1172 -0.2116
  276PVA    H5946849   1.789   1.205   2.700  0.2571  0.3741  1.7391
  276PVA    H6046850   1.936   1.273   2.738  2.4902  1.2291 -2.6741
  276PVA    C3146851   1.795   1.420   2.677  0.9763 -0.7024 -0.5975
  276PVA    H6146852   1.813   1.482   2.588 -1.2230  0.2257 -0.4610
  276PVA    H6246853   1.827   1.474   2.767 -1.3914 -0.8222  0.3795
  276PVA    C3246854   1.635   1.428   2.691 -0.4211  0.4534 -0.2340
  276PVA    H6346855   1.590   1.418   2.591 -1.3510 -1.4476  0.3302
  276PVA    O1146856   1.599   1.323   2.773  0.6810  0.2094 -0.3867
  276PVA    H6446857   1.676   1.265   2.779  2.2306  2.2579  1.2566
  276PVA    C3346858   1.578   1.556   2.765  0.3608  0.6006  0.1237
  276PVA    H6546859   1.611   1.655   2.733  0.1596 -0.4765 -3.8615
  276PVA    H6646860   1.602   1.542   2.872 -3.9421  2.6956  1.6138
  276PVA    C3446861   1.418   1.572   2.760 -1.1087 -0.1519  0.1228
  276PVA    H6746862   1.379   1.520   2.672 -0.1193 -1.8109  0.6144
  276PVA    H6846863   1.385   1.515   2.848 -1.6989  0.4200  0.2773
  276PVA    C3546864   1.358   1.720   2.752 -0.2681  0.8141  1.3188
  276PVA    H6946865   1.397   1.764   2.659 -2.4047 -1.0162 -0.5388
  276PVA    O1246866   1.399   1.790   2.861  0.8159  0.1763 -0.1487
  276PVA    H7046867   1.439   1.723   2.920  0.5694 -1.0626 -1.3583
  276PVA    C3646868   1.203   1.747   2.731 -0.6881 -0.0499  1.1447
  276PVA    H7146869   1.143   1.676   2.790  0.8995 -2.7661 -0.3227
  276PVA    H7246870   1.177   1.841   2.781 -0.5504  0.1543  0.8344
  276PVA    C3746871   1.119   1.741   2.590 -0.1083  0.9836 -0.4674
  276PVA    H7346872   1.026   1.684   2.603  2.2462 -3.2018 -0.4601
  276PVA    H7446873   1.177   1.686   2.515 -0.1607  0.9750 -0.5020
  276PVA    C3846874   1.073   1.874   2.527 -0.5423 -0.2452  0.4253
  276PVA    H7546875   1.148   1.920   2.461  0.8407 -3.5477 -0.4966
  276PVA    O1346876   1.034   1.974   2.622  0.7387 -0.7733  1.1919
  276PVA    H7646877   0.976   1.940   2.692  1.0299  0.8682  2.2726
  276PVA    C3946878   0.965   1.873   2.405  0.5097 -0.5510 -0.2156
  276PVA    H7746879   0.859   1.878   2.433  1.7299  0.7299  5.1296
  276PVA    H7846880   0.964   1.776   2.353  0.0147  0.2434 -1.7528
  276PVA    C4046881   0.987   1.986   2.287 -0.4261  0.2442 -1.4294
  276PVA    H7946882   0.987   2.084   2.337  2.3825 -0.5131  0.2790
  276PVA    H8046883   1.097   1.990   2.279 -0.0702  4.0666  1.9387
  276PVA    C4146884   0.895   2.008   2.161 -0.5208  0.0739  0.0476
  276PVA    H8146885   0.891   1.913   2.106  2.2779  0.7344 -1.5168
  276PVA    O1446886   0.768   2.038   2.197 -0.1234 -0.2717 -0.2456
  276PVA    H8246887   0.784   2.129   2.230  2.7972 -0.5489 -0.6165
  276PVA    C4246888   0.933   2.106   2.050 -0.7308  1.2934  0.8856
  276PVA    H8346889   1.033   2.144   2.076  0.7032 -2.9608  2.4558
  276PVA    H8446890   0.873   2.197   2.063  0.4638  2.1219  0.7964
  276PVA    C4346891   0.928   2.051   1.901  0.5422 -0.5524 -0.1937
  276PVA    H8546892   0.845   1.981   1.893 -0.4911  0.8066 -2.1845
  276PVA    H8646893   1.022   1.995   1.903 -1.1975 -3.6692  2.2412
  276PVA    C4446894   0.913   2.144   1.772  0.2496 -0.9915 -0.1628
  276PVA    H8746895   0.983   2.229   1.762  0.5570 -0.9838  1.6547
  276PVA    O1546896   0.792   2.207   1.786  0.1625 -0.6142 -0.1419
  276PVA    H8846897   0.789   2.269   1.711 -1.0830  0.7042  0.9634
  276PVA    C4546898   0.918   2.055   1.632  0.3976  0.5081 -0.9264
  276PVA    H8946899   0.910   1.949   1.661  0.4885  0.4647 -1.0594
  276PVA    H9046900   1.010   2.074   1.575  2.7858  1.6978  2.9592
  276PVA    C4646901   0.816   2.054   1.508 -0.1955 -1.1100 -1.7273
  276PVA    H9146902   0.724   2.008   1.547 -0.3458  1.7039  1.7821
  276PVA    H9246903   0.795   2.161   1.497  3.2543  0.0965  1.2338
  276PVA    C4746904   0.853   1.988   1.373 -0.2024  0.5077 -0.2219
  276PVA    H9346905   0.946   2.032   1.336  1.6839 -2.7629  0.2835
  276PVA    O1646906   0.891   1.863   1.405 -0.3577  0.6218 -0.3495
  276PVA    H9446907   0.808   1.813   1.406  0.3220 -1.0072  4.6271
  276PVA    C4846908   0.743   1.990   1.261 -0.5886  0.3473 -0.0331
  276PVA    H9546909   0.652   1.943   1.301 -0.4688  0.3755  0.2739
  276PVA    H9646910   0.728   2.092   1.225 -4.4099 -0.6861 -1.8777
  276PVA    C4946911   0.777   1.914   1.125  1.3009 -0.8987 -0.5518
  276PVA    H9746912   0.885   1.912   1.105  1.2166 -2.3301 -0.9217
  276PVA    H9846913   0.777   1.813   1.167  1.3146  0.2966  2.6051
  276PVA    C5046914   0.677   1.941   1.014 -0.6684  0.2763 -0.1886
  276PVA    H9946915   0.653   2.047   1.003  1.0364  0.8284  1.0454
  276PVA    O1746916   0.557   1.873   1.034  0.1465  1.1135 -0.0089
  276PVA   H10046917   0.523   1.848   0.946  1.2289 -2.4329  0.3945
  276PVA    C5146918   0.734   1.895   0.873  0.1507  0.2602 -0.9005
  276PVA   H10146919   0.815   1.958   0.832  3.5126 -0.8024  3.3377
  276PVA   H10246920   0.798   1.810   0.899  0.5408  1.2644  1.7799
  277PVA     C146921   3.637   2.230   7.509  0.9834 -0.2563  1.1694
  277PVA     H146922   3.699   2.150   7.550  2.9577  0.5101 -0.1701
  277PVA     H246923   3.703   2.253   7.424  0.2438 -1.6206  0.1878
  277PVA     C246924   3.506   2.154   7.454 -0.4085 -1.2881 -0.2983
  277PVA     H346925   3.455   2.224   7.387  1.0389  0.6571  0.5629
  277PVA     O146926   3.417   2.095   7.559 -0.7354  0.7518 -0.0373
  277PVA     H446927   3.480   2.043   7.612  0.3876 -2.4783 -3.9831
  277PVA     C346928   3.552   2.031   7.370 -0.5827  2.2540  0.5121
  277PVA     H546929   3.539   1.943   7.434  1.3577  2.2794  1.0037
  277PVA     H646930   3.651   2.034   7.322 -0.7112  1.7436  0.2001
  277PVA     C446931   3.472   1.998   7.246  0.2270  0.0450  0.6857
  277PVA     H746932   3.431   2.096   7.217 -0.1681 -0.3755 -0.2369
  277PVA     H846933   3.534   1.971   7.159 -2.7461 -0.8263 -1.3339
  277PVA     C546934   3.344   1.899   7.233  1.2437  0.3605  0.1012
  277PVA     H946935   3.243   1.932   7.263  1.5651 -0.5250  2.3061
  277PVA     O246936   3.384   1.770   7.291  1.3408 -0.1008 -0.0944
  277PVA    H1046937   3.300   1.724   7.306 -0.7338  3.2492 -0.3602
  277PVA     C646938   3.329   1.850   7.090  0.4372  0.1654 -0.0091
  277PVA    H1146939   3.318   1.933   7.019 -1.8019 -3.1341 -3.9669
  277PVA    H1246940   3.430   1.811   7.068  0.4877  1.0674 -1.5114
  277PVA     C746941   3.212   1.744   7.059  0.0433  0.9801 -0.4332
  277PVA    H1346942   3.119   1.799   7.077  1.1479  2.5549  0.7330
  277PVA    H1446943   3.190   1.662   7.128  1.7925 -3.3688 -4.4774
  277PVA     C846944   3.196   1.677   6.911  0.4709 -0.1035 -0.2794
  277PVA    H1546945   3.131   1.752   6.864 -0.7424 -0.4120  0.8665
  277PVA     O346946   3.323   1.682   6.841  0.1717  1.1326 -0.6968
  277PVA    H1646947   3.372   1.600   6.859  3.2627  2.7728 -0.9277
  277PVA     C946948   3.135   1.526   6.895  0.4832 -1.1573 -0.1450
  277PVA    H1746949   3.213   1.452   6.918  5.2959  2.9004 -1.5555
  277PVA    H1846950   3.055   1.542   6.969  0.0010  0.0431 -0.8862
  277PVA    C1046951   3.066   1.496   6.755 -0.5529  0.4847 -0.3371
  277PVA    H1946952   3.130   1.533   6.673 -4.2974  3.1127 -2.4260
  277PVA    H2046953   2.963   1.532   6.766 -0.9442 -1.0256  1.3916
  277PVA    C1146954   3.059   1.349   6.705 -0.3731 -0.0646  1.3094
  277PVA    H2146955   3.148   1.330   6.645 -1.2211  1.0464 -0.3619
  277PVA     O446956   3.044   1.260   6.817  0.3266 -0.4966  0.6265
  277PVA    H2246957   2.950   1.269   6.840  0.8131  2.2572  1.8715
  277PVA    C1246958   2.929   1.320   6.622 -0.3306  1.1668 -0.4227
  277PVA    H2346959   2.923   1.389   6.537 -2.8147  0.9646 -0.5089
  277PVA    H2446960   2.844   1.322   6.692  0.1931 -4.3069  0.7899
  277PVA    C1346961   2.923   1.179   6.547  0.0161  0.8809 -0.0369
  277PVA    H2546962   2.901   1.093   6.613 -2.4376 -0.6632 -2.6005
  277PVA    H2646963   3.024   1.150   6.517  1.2255  3.2701  1.5023
  277PVA    C1446964   2.823   1.187   6.414 -0.0816 -0.6217  0.2347
  277PVA    H2746965   2.873   1.231   6.327 -0.0292 -2.6515 -0.8350
  277PVA     O546966   2.706   1.253   6.455  0.7627 -1.0273 -0.0776
  277PVA    H2846967   2.729   1.347   6.467  0.5712 -1.2276  2.4776
  277PVA    C1546968   2.772   1.054   6.347 -0.7524  1.1854  0.0395
  277PVA    H2946969   2.684   1.080   6.288 -2.7277  0.4014  2.4722
  277PVA    H3046970   2.740   0.995   6.434 -1.1104  2.6200  0.9214
  277PVA    C1646971   2.868   0.974   6.255  0.4032  0.5041  0.0072
  277PVA    H3146972   2.895   1.031   6.165  1.2187  1.1134  0.6205
  277PVA    H3246973   2.964   0.977   6.308 -0.3604  0.8317  1.4440
  277PVA    C1746974   2.838   0.818   6.225  0.5033  0.9305  1.0158
  277PVA    H3346975   2.834   0.766   6.322 -0.1445 -0.5025  0.2456
  277PVA     O646976   2.702   0.814   6.167 -0.1750 -0.7966  0.4379
  277PVA    H3446977   2.664   0.796   6.255  1.6971 -2.7590  0.9318
  277PVA    C1846978   2.933   0.750   6.120  1.0505 -0.4792 -1.0260
  277PVA    H3546979   2.878   0.735   6.026  0.3337 -0.6702 -0.5864
  277PVA    H3646980   3.011   0.825   6.102 -0.1420  1.2971  0.7146
  277PVA    C1946981   2.982   0.608   6.161 -0.0474  0.1051 -0.3753
  277PVA    H3746982   2.990   0.598   6.270 -0.5225 -0.3461 -0.3744
  277PVA    H3846983   2.914   0.524   6.141  2.1974 -1.6862 -0.9131
  277PVA    C2046984   3.112   0.536   6.096 -0.1916  0.1687 -0.1464
  277PVA    H3946985   3.077   0.436   6.070  4.1944 -1.5164 -0.4537
  277PVA     O746986   3.134   0.600   5.967  0.8828  0.7285  0.4992
  277PVA    H4046987   3.185   0.537   5.914  1.9716 -3.1298  5.3842
  277PVA    C2146988   3.252   0.517   6.170 -0.1747 -1.4864 -0.4474
  277PVA    H4146989   3.241   0.497   6.278  2.0174  0.0070  0.1310
  277PVA    H4246990   3.278   0.624   6.167 -1.1767 -1.2543 -2.4408
  277PVA    C2246991   3.381   0.443   6.110  0.3972 -0.8287  0.3187
  277PVA    H4346992   3.342   0.342   6.093 -3.5178  0.7287 -1.2564
  277PVA    H4446993   3.394   0.500   6.017 -1.0123 -1.5055 -0.3273
  277PVA    C2346994   3.507   0.435   6.211  0.3380  0.8332  0.9410
  277PVA    H4546995   3.486   0.404   6.314  1.1290  1.0879  1.1765
  277PVA     O846996   3.550   0.557   6.238 -0.1818  0.5593  0.3598
  277PVA    H4646997   3.637   0.541   6.280 -0.0815  2.2963  0.8969
  277PVA    C2446998   3.637   0.349   6.172 -0.4698 -0.6370 -0.1680
  277PVA    H4746999   3.607   0.254   6.126 -0.0471  1.3398 -5.1701
  277PVA    H4847000   3.669   0.385   6.073 -0.8436 -0.5730 -0.2682
  277PVA    C2547001   3.752   0.345   6.278  0.1626  1.1588  0.5535
  277PVA    H4947002   3.702   0.287   6.357 -0.1472 -3.2456 -2.4920
  277PVA    H5047003   3.783   0.436   6.330 -0.5912  0.0100  3.2095
  277PVA    C2647004   3.882   0.274   6.228  0.2829 -0.1610 -0.1271
  277PVA    H5147005   3.888   0.213   6.137  4.3332 -3.3817  1.9647
  277PVA     O947006   3.976   0.376   6.186 -0.7639  0.1912  0.5324
  277PVA    H5247007   4.034   0.389   6.263  2.7921 -2.3645 -1.4084
  277PVA    C2747008   3.953   0.197   6.342  0.9124  0.6257 -0.1977
  277PVA    H5347009   3.895   0.108   6.369 -0.0294  1.7012  1.4648
  277PVA    H5447010   3.948   0.253   6.436  0.7108  2.5249 -1.2777
  277PVA    C2847011   4.098   0.157   6.316 -0.1211 -1.1296  0.0673
  277PVA    H5547012   4.153   0.250   6.297 -2.5970  0.9475  2.2633
  277PVA    H5647013   4.087   0.106   6.219 -1.8112  0.7788 -0.8394
  277PVA    C2947014   4.176   0.066   6.425 -0.9234 -0.1391  0.9207
  277PVA    H5747015   4.167   0.107   6.527 -0.7895 -1.4153  1.4683
  277PVA    O1047016   4.098   7.633   6.407  0.5615 -0.7397 -0.0745
  277PVA    H5847017   4.132   7.605   6.320 -0.4153  1.7248 -1.3310
  277PVA    C3047018   4.328   0.012   6.366  0.6285 -0.6337 -0.2442
  277PVA    H5947019   4.391   0.100   6.348 -1.6686  0.9918 -0.7653
  277PVA    H6047020   4.310   7.659   6.264  2.1909  0.4444 -0.9679
  277PVA    C3147021   4.397   7.594   6.460  1.1536 -0.0810  1.0372
  277PVA    H6147022   4.313   7.526   6.481 -2.9430  3.2869 -2.6071
  277PVA    H6247023   4.409   7.641   6.558 -0.4102  0.2314  1.0975
  277PVA    C3247024   4.537   7.537   6.410 -0.4500 -0.2211  0.1725
  277PVA    H6347025   4.607   7.620   6.428 -3.1635  2.2830  0.0337
  277PVA    O1147026   4.546   7.553   6.269  1.1217 -0.0366 -1.2583
  277PVA    H6447027   4.461   7.524   6.232 -1.9322  1.2697  3.6809
  277PVA    C3347028   4.578   7.389   6.442 -0.2928  0.0266 -0.1330
  277PVA    H6547029   4.511   7.313   6.399 -0.9868  0.7379 -0.3276
  277PVA    H6647030   4.577   7.390   6.552  0.9040  1.0141 -0.1087
  277PVA    C3447031   4.724   7.374   6.399 -0.1118 -0.4985  0.7141
  277PVA    H6747032   4.734   7.400   6.292 -1.7355 -1.9122  0.1748
  277PVA    H6847033   4.797   7.437   6.452  0.1103 -1.9720  2.2247
  277PVA    C3547034   4.775   7.216   6.392 -0.0167 -1.2214 -0.6428
  277PVA    H6947035   4.707   7.157   6.329 -2.9533 -2.0872  2.9673
  277PVA    O1247036   4.767   7.155   6.527  0.6603  1.2082 -0.1854
  277PVA    H7047037   4.839   7.209   6.566  2.2477 -0.8506 -0.1215
  277PVA    C3647038   4.924   7.190   6.366  0.2506 -1.0486  0.3805
  277PVA    H7147039   4.955   7.258   6.286 -1.7731 -1.7691 -1.1307
  277PVA    H7247040   4.985   7.223   6.450 -1.2606  1.8594  0.4609
  277PVA    C3747041   4.958   7.039   6.340 -0.2091 -0.1440  0.5704
  277PVA    H7347042   4.913   7.018   6.242  1.0246  0.8377 -0.2348
  277PVA    H7447043   4.905   6.968   6.405  0.2061  1.2973  2.5725
  277PVA    C3847044   5.115   7.010   6.335 -0.4763 -0.9013  0.7705
  277PVA    H7547045   5.164   7.098   6.292 -3.2483  0.2100 -0.3459
  277PVA    O1347046   5.157   7.005   6.472 -0.2257 -0.4589  0.7094
  277PVA    H7647047   5.136   7.090   6.515  0.1402  0.6118 -1.1118
  277PVA    C3947048   5.168   6.878   6.262 -1.0057 -0.5899  0.0566
  277PVA    H7747049   5.175   6.903   6.155  1.1044  1.6620  0.6530
  277PVA    H7847050   5.091   6.806   6.232 -0.1650 -0.6067 -2.2949
  277PVA    C4047051   5.298   6.804   6.306 -0.7728 -0.1049 -0.6907
  277PVA    H7947052   5.375   6.876   6.336  2.2503 -3.8219  1.3189
  277PVA    H8047053   5.282   6.740   6.393 -0.0286  1.9329  1.0198
  277PVA    C4147054   5.359   6.724   6.186 -0.9482 -0.0677  0.8765
  277PVA    H8147055   5.281   6.673   6.128  0.6792  1.1764 -2.6683
  277PVA    O1447056   5.399   6.827   6.102 -0.0175  0.7288  0.8272
  277PVA    H8247057   5.415   6.777   6.020 -6.3352 -1.3941  0.3583
  277PVA    C4247058   5.487   6.631   6.206 -0.6282 -0.0338  0.5985
  277PVA    H8347059   5.449   6.549   6.268 -2.8682  2.5127  2.8695
  277PVA    H8447060   5.560   6.679   6.273  2.2229 -1.9844 -0.8767
  277PVA    C4347061   5.563   6.581   6.084  0.6871 -0.0698 -0.8527
  277PVA    H8547062   5.542   6.655   6.006 -1.1905 -0.5815 -0.8866
  277PVA    H8647063   5.508   6.489   6.061 -1.8614  0.9859  0.5416
  277PVA    C4447064   5.711   6.554   6.086  0.2772 -0.0831 -0.5753
  277PVA    H8747065   5.724   6.505   6.183 -0.0877 -0.4819 -0.7205
  277PVA    O1547066   5.783   6.687   6.092 -0.4251  0.3224  0.3600
  277PVA    H8847067   5.811   6.705   6.000  0.2461 -4.6322 -0.7481
  277PVA    C4547068   5.771   6.452   5.985  0.8913  0.7404  0.1832
  277PVA    H8947069   5.737   6.476   5.883  1.6842 -0.7225 -0.4414
  277PVA    H9047070   5.712   6.363   6.007 -3.6608  3.8481  2.2748
  277PVA    C4647071   5.929   6.414   5.993 -0.0247  0.5597  1.0071
  277PVA    H9147072   5.939   6.376   6.096 -3.1311 -0.3058  1.1134
  277PVA    H9247073   5.981   6.510   5.991 -1.0264  1.1550  1.8880
  277PVA    C4747074   5.981   6.316   5.885 -0.8774  0.1634 -0.9315
  277PVA    H9347075   5.957   6.364   5.790 -0.4136  0.5320 -0.8612
  277PVA    O1647076   5.909   6.197   5.883 -0.2613  0.1819 -0.3174
  277PVA    H9447077   5.818   6.220   5.858 -0.0473  1.4838  0.0019
  277PVA    C4847078   6.131   6.282   5.894  0.4206 -0.3479  0.1854
  277PVA    H9547079   6.173   6.377   5.928 -0.9110 -0.2792  1.7945
  277PVA    H9647080   6.139   6.230   5.990 -2.0747  0.8348  1.1378
  277PVA    C4947081   6.203   6.219   5.770 -0.7669  0.2737 -0.4817
  277PVA    H9747082   6.216   6.302   5.700 -2.5674 -1.2824 -2.8231
  277PVA    H9847083   6.144   6.141   5.720  1.7002 -1.4482 -0.8680
  277PVA    C5047084   6.343   6.158   5.807 -0.0981  1.2831  0.0531
  277PVA    H9947085   6.304   6.072   5.863 -0.5885  0.1667 -1.9175
  277PVA    O1747086   6.410   6.254   5.885  0.5538  0.7050  0.4258
  277PVA   H10047087   6.386   6.234   5.977 -2.9108 -0.4988 -0.5814
  277PVA    C5147088   6.433   6.121   5.684  0.1167 -1.0741 -0.2432
  277PVA   H10147089   6.509   6.200   5.682 -0.5508 -0.4291 -0.4534
  277PVA   H10247090   6.379   6.113   5.589  1.8032 -0.4737 -1.3013
  278PVA     C147091   0.420   2.418   0.496  0.5275 -0.2641  0.0377
  278PVA     H147092   0.490   2.345   0.455  1.6077  1.4983 -1.4052
  278PVA     H247093   0.420   2.483   0.408  2.7219 -3.1286 -2.2856
  278PVA     C247094   0.491   2.489   0.610  0.0702 -0.4481  0.8777
  278PVA     H347095   0.541   2.417   0.676  1.4612 -0.1671  0.1516
  278PVA     O147096   0.393   2.578   0.681  0.8140  0.5985  0.3060
  278PVA     H447097   0.437   2.600   0.765  2.4482  0.2871 -0.4245
  278PVA     C347098   0.601   2.589   0.549  0.2143 -0.5426 -1.6498
  278PVA     H547099   0.677   2.527   0.500  0.1580  0.2569 -2.7828
  278PVA     H647100   0.664   2.628   0.631 -0.4574  2.6586 -2.5240
  278PVA     C447101   0.568   2.685   0.433 -0.0678 -1.1347  0.0074
  278PVA     H747102   0.556   2.626   0.341 -3.3534  1.9915 -1.8047
  278PVA     H847103   0.472   2.736   0.441 -0.8829 -2.7486  1.1468
  278PVA     C547104   0.670   2.799   0.415  0.4869  1.0555 -0.1067
  278PVA     H947105   0.658   2.880   0.488  5.8393  1.9458  0.1680
  278PVA     O247106   0.801   2.754   0.457  0.4261  0.5197  0.0306
  278PVA    H1047107   0.845   2.744   0.371  0.3727 -1.1949  0.1796
  278PVA     C647108   0.681   2.879   0.283 -0.1235 -0.6965 -0.0928
  278PVA    H1147109   0.719   2.816   0.201 -1.6981 -0.8094 -0.7722
  278PVA    H1247110   0.765   2.949   0.290  0.4433 -1.1556 -1.8381
  278PVA     C747111   0.547   2.946   0.242  0.0019  0.6267 -0.1216
  278PVA    H1347112   0.513   2.905   0.146 -0.5983  1.9848 -0.5271
  278PVA    H1447113   0.475   2.915   0.319 -1.9024  1.0153 -1.6700
  278PVA     C847114   0.535   3.101   0.224  0.0513  0.0320  0.2252
  278PVA    H1547115   0.542   3.150   0.322  0.7309  2.1075 -0.7997
  278PVA     O347116   0.638   3.166   0.135 -0.5796 -0.4426 -0.1803
  278PVA    H1647117   0.717   3.172   0.191  2.9012 -2.0859 -4.3179
  278PVA     C947118   0.393   3.165   0.200  1.0510  0.0393  0.1715
  278PVA    H1747119   0.323   3.088   0.235  4.3055 -1.3958  4.3343
  278PVA    H1847120   0.358   3.176   0.096 -3.5953  0.0432  1.4789
  278PVA    C1047121   0.365   3.312   0.278  0.1009  0.0249 -0.3477
  278PVA    H1947122   0.266   3.336   0.239 -0.6169 -1.9358  0.1581
  278PVA    H2047123   0.377   3.307   0.387  0.4909 -2.9278 -0.4311
  278PVA    C1147124   0.472   3.426   0.233  0.4580 -0.4725 -0.0019
  278PVA    H2147125   0.527   3.399   0.142  1.3614 -3.4378  1.3065
  278PVA     O447126   0.543   3.454   0.345  1.2104 -0.1130 -0.2322
  278PVA    H2247127   0.605   3.385   0.375 -0.8597 -1.8353  0.4159
  278PVA    C1247128   0.398   3.548   0.191  0.8815  0.0723  0.5395
  278PVA    H2347129   0.323   3.520   0.115 -1.8339 -1.1590  3.4569
  278PVA    H2447130   0.324   3.564   0.270  1.4599  0.4854  1.0092
  278PVA    C1347131   0.494   3.666   0.163  0.6424  0.0912 -0.7187
  278PVA    H2547132   0.521   3.705   0.261  1.1489  2.7743 -1.8480
  278PVA    H2647133   0.591   3.630   0.123  2.5038 -1.0177  4.1184
  278PVA    C1447134   0.416   3.782   0.081  0.2621 -0.4064  0.3448
  278PVA    H2747135   0.310   3.755   0.072 -1.1417  2.7449  4.2402
  278PVA     O547136   0.417   3.905   0.151 -1.1052  0.5623  0.2566
  278PVA    H2847137   0.477   3.956   0.094 -0.2910 -1.2723 -0.6251
  278PVA    C1547138   0.465   3.792   8.038 -0.6516  0.9157  0.6108
  278PVA    H2947139   0.422   3.704   7.988 -0.8457  1.0339  0.5714
  278PVA    H3047140   0.574   3.801   8.031 -0.4505 -1.7550 -3.5166
  278PVA    C1647141   0.412   3.903   7.952 -0.6739 -1.0225  0.0448
  278PVA    H3147142   0.475   3.988   7.979  0.0873 -1.1684 -1.1830
  278PVA    H3247143   0.306   3.923   7.968 -1.5117 -2.9154 -2.3423
  278PVA    C1747144   0.423   3.897   7.797  0.1527 -0.4387 -0.4333
  278PVA    H3347145   0.387   3.992   7.754  4.7953  0.4512 -2.9166
  278PVA     O647146   0.348   3.780   7.765 -0.6249 -0.5618 -1.1268
  278PVA    H3447147   0.368   3.754   7.674  0.0309  0.4948 -1.2992
  278PVA    C1847148   0.573   3.878   7.761  0.3078  0.5879  0.5122
  278PVA    H3547149   0.622   3.944   7.834 -2.8846  0.6707  2.8266
  278PVA    H3647150   0.614   3.782   7.794  0.1564  0.4354  0.2528
  278PVA    C1947151   0.589   3.886   7.608  0.9822  0.0118  0.0476
  278PVA    H3747152   0.515   3.820   7.560  0.9114 -0.8352  1.2771
  278PVA    H3847153   0.540   3.984   7.597 -0.1448 -0.7605 -2.5262
  278PVA    C2047154   0.727   3.909   7.541 -1.3873 -0.3977 -0.1542
  278PVA    H3947155   0.786   3.977   7.604 -2.0345  0.0975 -0.0754
  278PVA     O747156   0.780   3.775   7.532 -0.1919 -0.5531 -0.4323
  278PVA    H4047157   0.857   3.775   7.591 -1.9165  2.6366  2.1613
  278PVA    C2147158   0.718   3.981   7.409 -0.2109  0.1102 -0.4512
  278PVA    H4147159   0.670   3.922   7.330 -0.2091 -1.0149  0.3657
  278PVA    H4247160   0.823   3.996   7.381  0.6880 -3.0588  0.7904
  278PVA    C2247161   0.655   4.126   7.421 -0.3975  0.3568  0.1213
  278PVA    H4347162   0.546   4.134   7.429 -0.2722  2.2512  0.2313
  278PVA    H4447163   0.698   4.173   7.510 -0.9478  1.9887 -0.4469
  278PVA    C2347164   0.697   4.208   7.294  0.0970  0.0415  0.2439
  278PVA    H4547165   0.806   4.200   7.294  0.1457  0.2982 -1.3091
  278PVA     O847166   0.668   4.132   7.171  0.0300  1.4578 -0.1215
  278PVA    H4647167   0.722   4.052   7.167  0.9600  2.0675 -3.4385
  278PVA    C2447168   0.636   4.349   7.274 -0.6503 -0.0421  0.8065
  278PVA    H4747169   0.663   4.413   7.358  1.9792 -1.6125  1.2648
  278PVA    H4847170   0.685   4.401   7.191 -1.2895 -0.6928 -0.0067
  278PVA    C2547171   0.483   4.368   7.269  0.0767 -0.5275  0.5231
  278PVA    H4947172   0.456   4.474   7.262  1.3283 -0.2921 -1.1458
  278PVA    H5047173   0.434   4.325   7.358 -4.8943 -1.9582 -2.5109
  278PVA    C2647174   0.421   4.290   7.162  0.6119  0.5604  0.4112
  278PVA    H5147175   0.460   4.191   7.187 -0.3577  0.4168  1.4569
  278PVA     O947176   0.476   4.353   7.045 -0.3441  0.2597 -0.5358
  278PVA    H5247177   0.570   4.331   7.046 -0.2164  0.0079 -4.4473
  278PVA    C2747178   0.265   4.301   7.157  0.5101  0.0952 -0.3636
  278PVA    H5347179   0.242   4.404   7.125 -0.1365 -0.0175 -0.2884
  278PVA    H5447180   0.235   4.277   7.260  0.6063  0.1630 -0.3191
  278PVA    C2847181   0.197   4.200   7.057 -0.5387 -0.6521 -0.0152
  278PVA    H5547182   0.249   4.220   6.962  0.8969 -3.6194  0.0235
  278PVA    H5647183   0.233   4.099   7.082  4.3800  1.0643  0.9263
  278PVA    C2947184   0.036   4.199   7.048  0.2821  0.6238 -0.3979
  278PVA    H5747185   0.006   4.298   7.013  1.2422  1.2088  0.3686
  278PVA    O1047186   7.742   4.183   7.184  0.1264 -0.4319 -0.5522
  278PVA    H5847187   7.728   4.087   7.191  2.1167 -0.9439 -2.3156
  278PVA    C3047188   7.734   4.115   6.935 -0.4292  0.2209  0.6957
  278PVA    H5947189   0.019   4.155   6.846 -0.6718 -3.5798 -1.3429
  278PVA    H6047190   0.014   4.015   6.937  1.5368  1.0431  3.5208
  278PVA    C3147191   7.587   4.125   6.919  0.1788  0.1202 -0.0992
  278PVA    H6147192   7.540   4.072   7.003  2.0997  3.2174  3.2619
  278PVA    H6247193   7.564   4.229   6.947 -2.3518 -0.7944  1.5519
  278PVA    C3247194   7.515   4.100   6.786 -0.4625  0.1930 -0.9118
  278PVA    H6347195   7.415   4.124   6.825 -0.7794 -4.2808  1.7149
  278PVA    O1147196   7.529   3.963   6.746  1.1343  0.5483 -0.8753
  278PVA    H6447197   7.462   3.906   6.789  1.8776  1.0352  1.0137
  278PVA    C3347198   7.549   4.212   6.680  0.4371  0.3826  1.4157
  278PVA    H6547199   7.653   4.210   6.648 -1.5568  0.0098 -7.8686
  278PVA    H6647200   7.531   4.309   6.728  0.5509  1.1094  0.0478
  278PVA    C3447201   7.465   4.180   6.550 -0.0149  0.1886  0.2563
  278PVA    H6747202   7.493   4.076   6.527 -0.2080 -0.0371  1.0077
  278PVA    H6847203   7.357   4.186   6.567 -0.3156  4.7081 -1.9014
  278PVA    C3547204   7.495   4.265   6.427 -0.1407 -0.7898  0.6432
  278PVA    H6947205   7.445   4.216   6.343  1.7847 -0.3761 -0.8167
  278PVA    O1247206   7.637   4.265   6.418 -0.3329 -0.2636 -0.2100
  278PVA    H7047207   7.667   4.185   6.465 -2.0110  0.4460  2.3487
  278PVA    C3647208   7.440   4.411   6.449  0.0008 -1.0567 -0.2157
  278PVA    H7147209   7.517   4.452   6.515  1.9030 -2.8010 -1.2632
  278PVA    H7247210   7.341   4.410   6.496  0.7995  0.5544  1.6474
  278PVA    C3747211   7.411   4.492   6.313 -0.5340  0.2126 -0.8659
  278PVA    H7347212   7.366   4.424   6.240  0.3467  1.2198 -2.3918
  278PVA    H7447213   7.328   4.559   6.339  0.1921  1.0986 -0.8083
  278PVA    C3847214   7.541   4.554   6.250 -0.8609 -0.8916  0.1207
  278PVA    H7547215   7.602   4.471   6.213 -1.5022 -1.6453  0.7106
  278PVA    O1347216   7.614   4.615   6.353  0.4593 -0.4130  0.4470
  278PVA    H7647217   7.709   4.618   6.333 -0.1070 -1.4082 -3.1030
  278PVA    C3947218   7.510   4.656   6.137  0.5623  0.3333 -0.4873
  278PVA    H7747219   7.433   4.620   6.067 -1.3064  0.7908  1.2496
  278PVA    H7847220   7.608   4.649   6.088  1.5801 -1.6538  1.5994
  278PVA    C4047221   7.492   4.802   6.188  0.4148  0.5580 -0.2205
  278PVA    H7947222   7.414   4.793   6.266  3.7037 -0.9707  3.2256
  278PVA    H8047223   7.584   4.853   6.218 -1.6549  2.5309  3.6066
  278PVA    C4147224   7.455   4.905   6.079 -0.4668 -1.1924  0.1166
  278PVA    H8147225   7.361   4.860   6.044 -0.0295 -0.4170 -2.2636
  278PVA    O1447226   7.551   4.893   5.980  1.0284  0.3076  0.1156
  278PVA    H8247227   7.604   4.815   6.006  3.6317  0.9214 -2.7311
  278PVA    C4247228   7.448   5.046   6.149  0.0137  0.1481  0.3681
  278PVA    H8347229   7.470   5.054   6.256  3.5924  2.9296 -0.4139
  278PVA    H8447230   7.510   5.123   6.101 -1.7119 -0.7634 -3.8436
  278PVA    C4347231   7.306   5.111   6.122 -0.0804  0.3790 -0.5988
  278PVA    H8547232   7.229   5.049   6.168  2.0846  0.5070  3.6218
  278PVA    H8647233   7.296   5.105   6.013  1.6263  3.4032 -1.0534
  278PVA    C4447234   7.272   5.257   6.149  0.4704 -0.7948 -0.1297
  278PVA    H8747235   7.281   5.276   6.256  0.0078 -0.8538 -0.0777
  278PVA    O1547236   7.364   5.352   6.088  0.0889  0.4611 -0.2340
  278PVA    H8847237   7.400   5.327   6.001 -0.2897 -1.2902  0.0945
  278PVA    C4547238   7.118   5.310   6.138 -0.7386 -0.4586 -0.3267
  278PVA    H8947239   7.111   5.416   6.163 -1.3962 -1.2938  3.6421
  278PVA    H9047240   7.079   5.257   6.226  0.9017 -0.8357  0.2177
  278PVA    C4647241   7.056   5.253   6.009  1.0050 -0.8692 -0.8975
  278PVA    H9147242   7.129   5.289   5.935  0.3466  1.8144 -0.3798
  278PVA    H9247243   7.052   5.145   5.996 -1.3372 -0.9064 -0.3166
  278PVA    C4747244   6.917   5.306   5.962 -0.6527 -0.8625 -0.4388
  278PVA    H9347245   6.844   5.255   6.026 -0.0789  1.3404  2.1369
  278PVA    O1647246   6.893   5.259   5.825  0.5271 -0.9037 -0.5274
  278PVA    H9447247   6.954   5.184   5.815 -0.5316 -1.9264  0.3549
  278PVA    C4847248   6.885   5.451   5.989 -0.2038 -0.5393  0.2531
  278PVA    H9547249   6.886   5.460   6.098  0.3573  0.4692  0.1776
  278PVA    H9647250   6.979   5.492   5.949 -0.5587 -0.5348 -0.5954
  278PVA    C4947251   6.765   5.520   5.939  0.3242  0.6189 -0.2220
  278PVA    H9747252   6.682   5.475   5.995  1.8368 -1.0509  0.8149
  278PVA    H9847253   6.767   5.502   5.831 -1.4803  5.5427 -1.3782
  278PVA    C5047254   6.758   5.668   5.987  1.0030  0.5441  0.2232
  278PVA    H9947255   6.829   5.702   6.062  2.3972 -2.2145  0.2889
  278PVA    O1747256   6.629   5.701   6.038  0.5014  0.2766 -0.8931
  278PVA   H10047257   6.624   5.692   6.135 -0.5854  0.5112 -0.9172
  278PVA    C5147258   6.776   5.777   5.870  0.1286  0.3730  0.1479
  278PVA   H10147259   6.796   5.862   5.937 -0.6714 -1.2450  2.5663
  278PVA   H10247260   6.867   5.768   5.809 -0.5569  1.5699 -1.1007
  279PVA     C147261   7.765   2.135   0.391 -0.1336 -0.9971 -0.5067
  279PVA     H147262   0.066   2.074   0.328  2.2898 -1.4686  2.2692
  279PVA     H247263   7.738   2.052   0.458 -0.9992 -2.2044 -2.2777
  279PVA     C247264   7.640   2.204   0.312 -1.3469  0.4842 -1.2224
  279PVA     H347265   7.686   2.283   0.250  1.6182  0.0049  0.1939
  279PVA     O147266   7.565   2.270   0.408 -0.0220 -0.3093 -0.3520
  279PVA     H447267   7.488   2.318   0.374 -2.1982 -1.7879  2.1461
  279PVA     C347268   7.552   2.117   0.231 -0.1174 -0.6894 -0.9715
  279PVA     H547269   7.539   2.144   0.126 -1.4890 -0.5593 -0.7857
  279PVA     H647270   7.607   2.024   0.214 -1.2253 -1.4152 -0.6955
  279PVA     C447271   7.423   2.056   0.311 -0.1809 -1.2215  0.1111
  279PVA     H747272   7.355   2.138   0.339  0.5415 -0.9678  1.2147
  279PVA     H847273   7.463   2.030   0.410 -1.3450 -0.6258  0.7548
  279PVA     C547274   7.351   1.935   0.246 -0.3438  0.2113 -0.1004
  279PVA     H947275   7.315   1.970   0.148  2.3484 -1.2738 -1.7280
  279PVA     O247276   7.437   1.822   0.237  1.2090 -0.1134 -0.0487
  279PVA    H1047277   7.464   1.785   0.323  1.4727 -2.8730 -1.2317
  279PVA     C647278   7.221   1.890   0.327 -1.0794 -0.8434  0.9828
  279PVA    H1147279   7.179   1.821   0.252 -1.1265 -3.0492  2.9051
  279PVA    H1247280   7.264   1.834   0.411  3.2320  2.0593  1.0111
  279PVA     C747281   7.102   1.981   0.360 -0.4103  0.2445 -0.3632
  279PVA    H1347282   7.024   1.911   0.391  1.0845 -1.6283 -0.5923
  279PVA    H1447283   7.078   2.045   0.274  1.7945  0.2063 -1.0872
  279PVA     C847284   7.118   2.074   0.479  0.3160  0.0829 -1.1904
  279PVA    H1547285   7.189   2.153   0.451  2.1182 -0.6871  0.9079
  279PVA     O347286   7.173   2.011   0.590  0.2072 -0.1632  0.7026
  279PVA    H1647287   7.235   2.084   0.609 -0.3331 -0.3337  3.5573
  279PVA     C947288   6.982   2.136   0.518 -0.0456 -0.5292 -0.8416
  279PVA    H1747289   6.904   2.059   0.510 -2.5855  2.0165 -2.9315
  279PVA    H1847290   6.955   2.189   0.425 -1.9928  1.3659  0.7113
  279PVA    C1047291   6.979   2.225   0.650 -0.4548  0.9958  0.3133
  279PVA    H1947292   6.900   2.173   0.706 -1.3640  2.2256  0.2022
  279PVA    H2047293   7.066   2.202   0.713 -1.1669 -2.4692  0.2547
  279PVA    C1147294   6.947   2.368   0.638  0.2196 -0.9724  0.0839
  279PVA    H2147295   7.023   2.421   0.579  1.7796 -1.0277  1.9372
  279PVA     O447296   6.830   2.380   0.569  0.8027 -0.4825 -0.3757
  279PVA    H2247297   6.763   2.429   0.621  1.5130 -3.1483  3.5148
  279PVA    C1247298   6.924   2.414   0.786 -0.7413  0.4004  0.6922
  279PVA    H2347299   6.823   2.394   0.824 -0.2182 -4.4031  0.2017
  279PVA    H2447300   6.984   2.347   0.848  0.4818  0.0510 -0.7953
  279PVA    C1347301   6.966   2.552   0.818  0.3289 -1.4592 -0.7540
  279PVA    H2547302   6.904   2.627   0.768  1.3749 -0.6166 -0.8185
  279PVA    H2647303   7.061   2.556   0.764  0.0788 -0.5537 -1.1486
  279PVA    C1447304   6.978   2.572   0.978  0.4423 -0.3537  1.5019
  279PVA    H2747305   6.889   2.527   1.023 -1.1128  1.9818  0.9320
  279PVA     O547306   7.103   2.506   0.988  0.2968 -0.9887  0.6547
  279PVA    H2847307   7.094   2.409   0.986 -0.5792 -0.9554 -3.1661
  279PVA    C1547308   6.985   2.719   1.026  0.7489 -0.0228 -1.0539
  279PVA    H2947309   6.884   2.759   1.013  0.3545 -0.4300  0.6111
  279PVA    H3047310   7.058   2.774   0.964 -0.3756  2.1577 -0.5400
  279PVA    C1647311   7.010   2.736   1.172 -0.0986  0.0320 -0.6061
  279PVA    H3147312   6.935   2.671   1.219 -0.6134 -1.2329 -3.0093
  279PVA    H3247313   7.107   2.694   1.202  0.9338  0.2964 -3.2400
  279PVA    C1747314   7.006   2.882   1.235 -1.0021  0.0370  0.3091
  279PVA    H3347315   6.924   2.939   1.189 -1.3350 -1.2160 -0.7137
  279PVA     O647316   7.126   2.958   1.219  0.4842 -1.0249 -0.3086
  279PVA    H3447317   7.202   2.920   1.267 -1.2246 -1.3423  2.3451
  279PVA    C1847318   6.958   2.880   1.380  0.9260  0.1600 -0.6128
  279PVA    H3547319   7.049   2.870   1.441 -0.5207 -3.5932  1.2896
  279PVA    H3647320   6.891   2.801   1.417 -2.1981  2.1293 -1.6320
  279PVA    C1947321   6.904   3.030   1.412  0.3433 -0.1702  0.7684
  279PVA    H3747322   6.814   3.059   1.355  1.4663  4.8256  1.0691
  279PVA    H3847323   6.972   3.110   1.379 -0.6332 -0.7386 -3.1250
  279PVA    C2047324   6.865   3.035   1.561 -0.1413 -0.1210 -0.6666
  279PVA    H3947325   6.838   2.932   1.587 -2.7793  0.8451  0.8713
  279PVA     O747326   6.967   3.092   1.646  0.2208 -1.1262 -0.6859
  279PVA    H4047327   6.939   3.100   1.739  0.7403  0.1791 -0.6192
  279PVA    C2147328   6.740   3.118   1.586  0.2823 -0.5576  0.6845
  279PVA    H4147329   6.657   3.088   1.522  0.8479  0.7097 -0.7019
  279PVA    H4247330   6.771   3.223   1.575 -0.8272 -0.2334  0.5357
  279PVA    C2247331   6.690   3.095   1.737 -0.7544 -0.4041 -0.2022
  279PVA    H4347332   6.631   3.004   1.752  0.6133 -1.2003  0.5197
  279PVA    H4447333   6.779   3.072   1.797 -1.4533 -1.4846  0.4309
  279PVA    C2347334   6.611   3.203   1.807  1.1638 -1.4464  0.0640
  279PVA    H4547335   6.670   3.294   1.826 -0.3798 -0.7860  2.0151
  279PVA     O847336   6.490   3.247   1.732  0.2361 -0.0633 -0.4505
  279PVA    H4647337   6.420   3.179   1.733  2.9466 -3.4310 -4.2202
  279PVA    C2447338   6.567   3.155   1.950 -0.0264 -0.2458  0.1152
  279PVA    H4747339   6.495   3.074   1.935 -2.4986  1.8426  0.1016
  279PVA    H4847340   6.638   3.109   2.020 -1.8709  0.5295  2.6434
  279PVA    C2547341   6.482   3.248   2.031 -0.2858  0.1395  0.4195
  279PVA    H4947342   6.420   3.301   1.958 -2.6105 -1.3107  1.2141
  279PVA    H5047343   6.550   3.317   2.081  2.0428 -1.4675 -0.3722
  279PVA    C2647344   6.395   3.196   2.141  0.2014  0.9586  0.1846
  279PVA    H5147345   6.321   3.124   2.104  0.5285 -1.3795  3.6500
  279PVA     O947346   6.335   3.307   2.200  1.2783  0.3980 -0.0655
  279PVA    H5247347   6.333   3.363   2.121  1.3472 -2.6773 -2.4382
  279PVA    C2747348   6.465   3.118   2.257  0.4574  0.5602  0.4634
  279PVA    H5347349   6.517   3.030   2.218  1.1646  0.7982  0.8611
  279PVA    H5447350   6.395   3.078   2.331  1.0513 -0.5113  0.4692
  279PVA    C2847351   6.574   3.192   2.324  0.2429 -0.9639  0.3209
  279PVA    H5547352   6.645   3.209   2.242  0.0195  0.6465  0.4217
  279PVA    H5647353   6.527   3.286   2.357 -1.7156 -0.6544 -2.8903
  279PVA    C2947354   6.651   3.101   2.430 -0.1290 -1.6234 -0.5561
  279PVA    H5747355   6.585   3.036   2.489  2.6304 -3.3995  0.7922
  279PVA    O1047356   6.738   3.020   2.354 -0.0336 -0.4489 -0.3167
  279PVA    H5847357   6.685   2.940   2.341  0.2541 -0.2053 -4.1644
  279PVA    C3047358   6.727   3.198   2.531  0.3855  0.4196 -0.7078
  279PVA    H5947359   6.816   3.251   2.494  0.6375  1.8543  1.7563
  279PVA    H6047360   6.654   3.275   2.558 -0.0008 -0.0079 -0.5210
  279PVA    C3147361   6.764   3.137   2.664 -0.5589  0.0440  0.8146
  279PVA    H6147362   6.673   3.126   2.723 -1.6052  5.7778  0.8590
  279PVA    H6247363   6.826   3.215   2.710 -1.8175  2.0917 -0.7978
  279PVA    C3247364   6.844   2.998   2.655 -0.7636  0.6238  0.9452
  279PVA    H6347365   6.903   3.007   2.563 -0.1154 -0.8834  1.1651
  279PVA    O1147366   6.764   2.882   2.619  0.3721 -0.0716  0.6746
  279PVA    H6447367   6.827   2.816   2.585  2.6967  3.2450 -2.1735
  279PVA    C3347368   6.953   2.970   2.755  0.2265 -0.9667 -0.1391
  279PVA    H6547369   6.993   2.871   2.730  4.9345  0.5738  0.3589
  279PVA    H6647370   6.881   2.951   2.836  0.6038 -1.2060  0.1450
  279PVA    C3447371   7.061   3.069   2.797  1.3620  0.0398 -0.7137
  279PVA    H6747372   7.099   3.099   2.698  0.4633  2.8807 -0.2835
  279PVA    H6847373   7.003   3.154   2.835  2.3449  1.0297 -1.3405
  279PVA    C3547374   7.157   3.008   2.898 -0.7166  0.5154 -0.0148
  279PVA    H6947375   7.206   2.914   2.869 -0.9638  0.7463 -1.1876
  279PVA    O1247376   7.087   2.995   3.021 -0.3437  0.1548 -0.0233
  279PVA    H7047377   7.069   3.090   3.032 -0.3641  0.2970 -1.2379
  279PVA    C3647378   7.270   3.116   2.920 -0.5303  0.8023  0.1031
  279PVA    H7147379   7.219   3.209   2.894 -2.7635 -0.6401 -1.0159
  279PVA    H7247380   7.288   3.128   3.028 -2.0451  0.2128  0.4508
  279PVA    C3747381   7.400   3.080   2.845  0.3468 -0.9492 -0.2863
  279PVA    H7347382   7.390   3.051   2.740  5.8154 -3.6463 -0.3724
  279PVA    H7447383   7.433   2.983   2.885  0.0804 -2.6206 -3.7627
  279PVA    C3847384   7.513   3.194   2.857  0.5933 -0.9262  0.4601
  279PVA    H7547385   7.454   3.286   2.852  4.0371  1.4597 -0.2004
  279PVA    O1347386   7.563   3.184   2.986 -0.0142 -0.9116  0.2234
  279PVA    H7647387   7.480   3.187   3.036  1.8301  2.5405  3.6136
  279PVA    C3947388   7.614   3.226   2.744  0.5638  1.2064  0.7658
  279PVA    H7747389   7.632   3.331   2.773 -2.5793  1.6494  1.4602
  279PVA    H7847390   7.703   3.168   2.772  2.1141  2.1704 -1.7232
  279PVA    C4047391   7.584   3.209   2.586  1.2136 -1.1617  0.4741
  279PVA    H7947392   7.518   3.137   2.535 -0.6216 -0.2750  1.5118
  279PVA    H8047393   7.674   3.182   2.529  0.9569 -4.3200  1.3327
  279PVA    C4147394   7.530   3.346   2.518  0.5973  0.7500 -1.0090
  279PVA    H8147395   7.576   3.428   2.575  1.5355 -1.8615  2.3371
  279PVA    O1447396   7.576   3.353   2.379 -1.2111  0.2085  0.1673
  279PVA    H8247397   7.568   3.260   2.352 -1.5394 -1.2869  4.6654
  279PVA    C4247398   7.372   3.373   2.546 -0.7920  0.7519  0.3846
  279PVA    H8347399   7.313   3.284   2.523 -3.1923  2.6475 -1.3842
  279PVA    H8447400   7.358   3.381   2.654 -0.0784 -0.1415  0.5511
  279PVA    C4347401   7.314   3.483   2.454  0.0657  0.1941  0.8021
  279PVA    H8547402   7.336   3.452   2.351 -0.4055 -3.5277  1.6848
  279PVA    H8647403   7.339   3.589   2.466 -0.6930  0.3653  0.9153
  279PVA    C4447404   7.159   3.476   2.463  0.4439 -0.3896 -0.3213
  279PVA    H8747405   7.105   3.382   2.446 -0.5744 -1.2209  5.4312
  279PVA    O1547406   7.100   3.572   2.375 -0.4338  0.3362 -0.1699
  279PVA    H8847407   7.137   3.567   2.285 -1.7783 -4.0659 -0.7319
  279PVA    C4547408   7.098   3.532   2.592 -0.4776  0.2507  0.4687
  279PVA    H8947409   7.149   3.515   2.688 -2.1543 -0.4437  1.2650
  279PVA    H9047410   7.124   3.639   2.590 -1.6061  0.5272 -0.0251
  279PVA    C4647411   6.949   3.493   2.618  0.6386  0.6050 -0.0176
  279PVA    H9147412   6.930   3.533   2.719 -1.1099  2.5226 -1.0244
  279PVA    H9247413   6.933   3.385   2.624 -1.5788  0.7047 -2.3647
  279PVA    C4747414   6.833   3.550   2.531  0.0953  0.6085 -1.1335
  279PVA    H9347415   6.852   3.652   2.495 -1.2503 -0.0449 -3.9923
  279PVA    O1647416   6.852   3.496   2.408 -0.5592  0.1141 -0.6369
  279PVA    H9447417   6.937   3.531   2.377 -0.9911  1.1202 -0.7250
  279PVA    C4847418   6.690   3.556   2.589  0.2668 -0.9895  0.3657
  279PVA    H9547419   6.655   3.456   2.618 -1.9417  0.0862  1.6617
  279PVA    H9647420   6.696   3.607   2.686  0.9037  0.0406 -0.2017
  279PVA    C4947421   6.592   3.614   2.495  0.8709  1.4226 -0.3785
  279PVA    H9747422   6.624   3.582   2.395  3.5688 -2.1337  1.4000
  279PVA    H9847423   6.591   3.724   2.487 -3.3630  1.4777 -1.2230
  279PVA    C5047424   6.449   3.564   2.541  0.1879  0.1974 -0.2565
  279PVA    H9947425   6.455   3.458   2.572  1.6741  0.5720  0.9025
  279PVA    O1747426   6.424   3.639   2.658 -0.2428  1.1270 -0.1902
  279PVA   H10047427   6.485   3.714   2.647  0.1464  1.5642  3.6263
  279PVA    C5147428   6.330   3.577   2.447 -1.0790 -0.2546 -0.1246
  279PVA   H10147429   6.308   3.684   2.436 -1.8682 -0.7074 -4.9019
  279PVA   H10247430   6.358   3.540   2.347 -2.4639 -0.1097 -0.5868
  280PVA     C147431   7.209   6.033   5.440 -0.2364 -0.2824  0.0625
  280PVA     H147432   7.146   6.071   5.358  0.1543 -0.2377 -0.2245
  280PVA     H247433   7.293   6.102   5.421  1.7830 -2.9961 -1.6541
  280PVA     C247434   7.126   6.061   5.565  0.0086 -0.1431 -0.4589
  280PVA     H347435   7.191   6.083   5.651  1.8634 -2.1170 -1.2621
  280PVA     O147436   7.050   5.954   5.590  0.2535  0.0092 -0.2511
  280PVA     H447437   7.085   5.883   5.533  3.5943  0.6750  0.7430
  280PVA     C347438   7.027   6.173   5.543 -1.2590  0.2141  0.2674
  280PVA     H547439   6.954   6.144   5.467 -0.9531 -0.5652  0.2619
  280PVA     H647440   7.103   6.249   5.520  1.3852 -3.1545 -3.4327
  280PVA     C447441   6.940   6.213   5.668 -0.3600 -0.4254 -0.3126
  280PVA     H747442   6.892   6.124   5.710  4.0255 -1.7350  2.6378
  280PVA     H847443   7.012   6.224   5.750  2.9906 -3.9493 -2.4546
  280PVA     C547444   6.837   6.333   5.653  0.5831  0.3561 -0.2208
  280PVA     H947445   6.778   6.296   5.568 -0.7893 -0.8955  1.2135
  280PVA     O247446   6.907   6.444   5.622 -0.2106 -0.4180 -1.0148
  280PVA    H1047447   6.838   6.511   5.609 -0.4918 -0.6588 -0.7792
  280PVA     C647448   6.758   6.380   5.777  0.4801  0.2524  0.1787
  280PVA    H1147449   6.717   6.297   5.836 -1.3224  0.2869 -0.9367
  280PVA    H1247450   6.819   6.438   5.848  1.1435 -0.9658  0.6443
  280PVA     C747451   6.639   6.478   5.745 -0.6816  0.3132  0.8456
  280PVA    H1347452   6.556   6.450   5.811  1.3258 -2.1282  2.5163
  280PVA    H1447453   6.615   6.458   5.639  2.2307  2.0129 -0.2584
  280PVA     C847454   6.651   6.633   5.742 -0.5494 -1.0722 -0.7175
  280PVA    H1547455   6.694   6.673   5.835  0.0128  1.0616 -1.8343
  280PVA     O347456   6.744   6.665   5.636 -0.0386 -0.8270  0.6738
  280PVA    H1647457   6.787   6.748   5.664  3.1735 -2.4322  0.8630
  280PVA     C947458   6.524   6.712   5.711  0.0108 -0.3413 -0.2233
  280PVA    H1747459   6.450   6.671   5.781  1.3252 -3.7371 -0.6126
  280PVA    H1847460   6.500   6.691   5.606  2.1602 -3.0918 -0.2779
  280PVA    C1047461   6.522   6.869   5.715  0.1838 -0.3808  0.6821
  280PVA    H1947462   6.542   6.900   5.818  0.5367 -2.2186  1.2096
  280PVA    H2047463   6.603   6.920   5.661 -2.3933  2.6651 -0.5926
  280PVA    C1147464   6.399   6.943   5.652  0.4409  1.2533 -0.7689
  280PVA    H2147465   6.316   6.923   5.720  1.0861  0.0027 -0.3190
  280PVA     O447466   6.365   6.904   5.518  0.5448 -0.0201  0.4336
  280PVA    H2247467   6.439   6.862   5.471  0.3295  0.5848 -0.4790
  280PVA    C1247468   6.428   7.099   5.664 -0.6258 -1.0272 -0.3704
  280PVA    H2347469   6.530   7.121   5.631  0.5644 -5.0973  0.1632
  280PVA    H2447470   6.415   7.131   5.768  1.9665 -4.0786  1.0458
  280PVA    C1347471   6.330   7.183   5.567  1.1186  0.1595 -0.6218
  280PVA    H2547472   6.306   7.134   5.472  3.0356 -1.6042 -0.2655
  280PVA    H2647473   6.234   7.171   5.618  1.0728  2.7437  0.0686
  280PVA    C1447474   6.345   7.339   5.564 -0.3738 -0.6860  0.6242
  280PVA    H2747475   6.445   7.363   5.601 -1.9709  1.5611  3.9130
  280PVA     O547476   6.263   7.403   5.653  0.3300 -1.1804 -0.4768
  280PVA    H2847477   6.174   7.411   5.615  0.1561 -1.6508 -0.1749
  280PVA    C1547478   6.337   7.396   5.406 -1.2000 -0.4610  1.1050
  280PVA    H2947479   6.251   7.356   5.351 -2.1657  1.6086  1.0089
  280PVA    H3047480   6.393   7.337   5.332 -1.4469  2.6980 -1.8461
  280PVA    C1647481   6.375   7.546   5.385 -0.3244 -0.2369  0.2472
  280PVA    H3147482   6.278   7.595   5.399 -0.9420 -1.3476 -0.0374
  280PVA    H3247483   6.451   7.557   5.464  0.5338 -1.3358 -0.3924
  280PVA    C1747484   6.425   7.599   5.239 -1.0144  0.0397 -1.1611
  280PVA    H3347485   6.430   7.519   5.164 -0.0779 -1.7060  0.6735
  280PVA     O647486   6.561   7.624   5.263  0.3573  0.0453 -0.3436
  280PVA    H3447487   6.609   7.539   5.259 -1.6105 -1.0817 -2.6526
  280PVA    C1847488   6.350   0.039   5.176 -0.7378  0.2308 -1.0947
  280PVA    H3547489   6.244   0.015   5.160 -0.7324 -2.2607  1.5984
  280PVA    H3647490   6.352   0.125   5.243 -0.1900 -0.4120 -0.2577
  280PVA    C1947491   6.413   0.080   5.037 -0.0501  1.4136  0.6096
  280PVA    H3747492   6.413   7.671   4.980 -4.1019  1.0757  0.8016
  280PVA    H3847493   6.519   0.106   5.044  0.5696 -0.6580 -0.4359
  280PVA    C2047494   6.336   0.194   4.968  0.4291  0.0443 -0.3289
  280PVA    H3947495   6.227   0.193   4.980  0.6312  0.6794  2.1471
  280PVA     O747496   6.385   0.307   5.031 -0.6547  0.2724 -0.0526
  280PVA    H4047497   6.477   0.284   5.050  0.6654  3.4902 -1.7640
  280PVA    C2147498   6.366   0.208   4.818 -0.3106 -0.6608 -0.5262
  280PVA    H4147499   6.472   0.226   4.799  0.5634 -3.6948  0.8766
  280PVA    H4247500   6.360   0.109   4.771 -0.9965 -0.8200 -0.1158
  280PVA    C2247501   6.260   0.303   4.743  0.8993  0.6417  0.4926
  280PVA    H4347502   6.277   0.405   4.780  0.8034  0.9542 -0.3031
  280PVA    H4447503   6.154   0.292   4.768  0.5883  2.8429  0.3498
  280PVA    C2347504   6.267   0.329   4.591 -0.5524  0.3053  0.5699
  280PVA    H4547505   6.375   0.342   4.595  0.2079 -3.6080 -1.9601
  280PVA     O847506   6.254   0.197   4.536 -0.2767 -0.1133 -0.3659
  280PVA    H4647507   6.327   0.187   4.473 -1.7366 -0.3799 -2.0769
  280PVA    C2447508   6.190   0.441   4.512  0.1303  0.2880 -0.1330
  280PVA    H4747509   6.089   0.398   4.508  0.9747 -2.7323  4.0051
  280PVA    H4847510   6.191   0.531   4.574  1.6183 -1.6682  2.9138
  280PVA    C2547511   6.236   0.474   4.371  0.9685 -0.2531 -0.2695
  280PVA    H4947512   6.175   0.415   4.302 -2.3868 -1.2803  3.2303
  280PVA    H5047513   6.343   0.448   4.364  0.6868 -0.9790 -2.6750
  280PVA    C2647514   6.222   0.624   4.328  0.1363  0.6151 -0.9109
  280PVA    H5147515   6.283   0.679   4.400 -2.8625  1.3456  1.3028
  280PVA     O947516   6.091   0.670   4.351 -0.9294 -0.1693  0.3511
  280PVA    H5247517   6.121   0.762   4.357  0.5173  0.3583 -6.4294
  280PVA    C2747518   6.270   0.660   4.179 -0.0720  0.4715 -0.5564
  280PVA    H5347519   6.361   0.609   4.146  1.0081  1.1405  1.2304
  280PVA    H5447520   6.189   0.626   4.113 -2.4233  1.3643  1.6629
  280PVA    C2847521   6.276   0.816   4.144 -0.6228  0.4656 -0.2553
  280PVA    H5547522   6.338   0.858   4.224 -0.3446  1.9304 -1.2077
  280PVA    H5647523   6.174   0.848   4.167 -0.9224 -1.5458  1.5165
  280PVA    C2947524   6.325   0.870   3.993  0.3526 -0.2555  0.6704
  280PVA    H5747525   6.240   0.880   3.924 -0.0056 -2.0786  0.7978
  280PVA    O1047526   6.402   0.773   3.929 -0.8088 -0.3688 -0.3969
  280PVA    H5847527   6.489   0.762   3.971  0.4806 -1.1432 -3.0589
  280PVA    C3047528   6.406   1.006   3.993 -0.2063  0.8895  0.4779
  280PVA    H5947529   6.354   1.085   4.048 -1.9973 -1.1631  1.9114
  280PVA    H6047530   6.499   0.971   4.041  0.1057  0.3701 -0.4582
  280PVA    C3147531   6.449   1.070   3.860  0.2198  0.2902  0.6771
  280PVA    H6147532   6.354   1.072   3.807 -0.1057  2.4541  1.2397
  280PVA    H6247533   6.515   0.990   3.823 -0.1471 -0.5253  1.7440
  280PVA    C3247534   6.532   1.206   3.858  0.4004  0.4545  0.2680
  280PVA    H6347535   6.455   1.277   3.892  0.3705 -0.1462  1.5180
  280PVA    O1147536   6.642   1.223   3.948 -0.4475  0.2149 -0.1431
  280PVA    H6447537   6.711   1.176   3.899  0.3079 -0.0598  1.1373
  280PVA    C3347538   6.572   1.256   3.718 -0.4277  0.6256  0.4754
  280PVA    H6547539   6.482   1.266   3.657  1.4501 -1.8449 -3.1001
  280PVA    H6647540   6.614   1.177   3.654 -2.3111 -0.5742  0.6433
  280PVA    C3447541   6.639   1.393   3.696  0.0589 -1.3645  0.1670
  280PVA    H6747542   6.580   1.454   3.765 -1.4202  0.5318 -2.5933
  280PVA    H6847543   6.737   1.391   3.746 -0.3527 -0.3510  1.0526
  280PVA    C3547544   6.633   1.451   3.558  0.2144  0.1964  0.9029
  280PVA    H6947545   6.528   1.467   3.531  0.6828 -0.3708 -1.4731
  280PVA    O1247546   6.679   1.353   3.478  0.2859 -1.2417 -0.8407
  280PVA    H7047547   6.775   1.368   3.481 -0.2392  3.5922  2.0013
  280PVA    C3647548   6.704   1.584   3.542 -0.5203  0.4130 -0.4360
  280PVA    H7147549   6.676   1.660   3.615  1.4563  0.9753 -0.2121
  280PVA    H7247550   6.809   1.556   3.558 -0.6919 -0.9508 -1.4491
  280PVA    C3747551   6.685   1.649   3.396 -0.4083  0.2615 -0.1654
  280PVA    H7347552   6.577   1.669   3.391 -0.0012  2.3931 -2.8869
  280PVA    H7447553   6.708   1.570   3.325 -0.6424 -1.0849  1.2067
  280PVA    C3847554   6.750   1.771   3.345  0.6714  0.2159  0.0560
  280PVA    H7547555   6.719   1.852   3.412 -1.1123  2.7110 -3.4242
  280PVA    O1347556   6.890   1.755   3.354 -0.2127  0.5231  0.3767
  280PVA    H7647557   6.913   1.682   3.293 -0.5174  2.0039 -1.6061
  280PVA    C3947558   6.708   1.823   3.202  0.0445  0.8000 -0.2882
  280PVA    H7747559   6.599   1.805   3.201 -0.2313  2.1883  0.9140
  280PVA    H7847560   6.751   1.765   3.120 -0.1784  2.4348 -1.6068
  280PVA    C4047561   6.714   1.971   3.184 -0.0391 -0.0004  0.4546
  280PVA    H7947562   6.656   2.018   3.264  1.4296 -0.3247  1.7582
  280PVA    H8047563   6.821   1.996   3.188 -0.1014  0.1767  1.1251
  280PVA    C4147564   6.672   2.043   3.051  0.7681  0.4116 -1.6209
  280PVA    H8147565   6.569   2.010   3.031  1.2520  0.2338 -4.0761
  280PVA    O1447566   6.747   2.006   2.941  0.0078 -0.7563  0.2984
  280PVA    H8247567   6.678   1.970   2.883 -1.0416 -3.2389  2.8633
  280PVA    C4247568   6.658   2.201   3.063  0.1782  0.5201  0.5721
  280PVA    H8347569   6.607   2.222   3.158 -3.5305 -3.1383 -0.2991
  280PVA    H8447570   6.759   2.242   3.064  0.6845 -0.6842  0.4289
  280PVA    C4347571   6.591   2.260   2.933  0.3069  0.3387  0.1576
  280PVA    H8547572   6.497   2.208   2.912  1.1029 -0.1103 -2.7442
  280PVA    H8647573   6.656   2.233   2.849 -1.3097 -1.0490 -0.7165
  280PVA    C4447574   6.558   2.420   2.941  0.3075  0.5544 -0.4736
  280PVA    H8747575   6.651   2.474   2.965  0.4244  0.4067 -0.5911
  280PVA    O1547576   6.472   2.423   3.047  0.7417 -0.8895  0.6650
  280PVA    H8847577   6.485   2.341   3.097  0.5690 -0.7282  0.9780
  280PVA    C4547578   6.503   2.499   2.816 -0.4082  0.8318 -0.5700
  280PVA    H8947579   6.426   2.429   2.781  0.4493  0.4016 -1.6341
  280PVA    H9047580   6.575   2.511   2.734  2.3236  0.3874  1.5948
  280PVA    C4647581   6.438   2.641   2.839 -0.4937  0.7177  1.0149
  280PVA    H9147582   6.390   2.634   2.937  3.2424 -3.2907  2.8682
  280PVA    H9247583   6.510   2.721   2.862  1.1170 -0.5545  0.5564
  280PVA    C4747584   6.340   2.701   2.733  1.0855  0.6639 -0.1562
  280PVA    H9347585   6.369   2.663   2.634 -0.9152  1.1090 -0.9515
  280PVA    O1647586   6.210   2.650   2.752 -0.1701  0.2276 -0.9356
  280PVA    H9447587   6.180   2.695   2.833  2.5173 -0.3227  0.4659
  280PVA    C4847588   6.313   2.849   2.744 -0.2589  0.6183  0.1805
  280PVA    H9547589   6.280   2.886   2.841  1.6389  1.6462  0.4799
  280PVA    H9647590   6.409   2.900   2.730 -1.2243  2.9906  1.7041
  280PVA    C4947591   6.220   2.922   2.645  0.3495  0.2324 -0.1625
  280PVA    H9747592   6.116   2.908   2.678 -0.7043  1.1323 -2.8525
  280PVA    H9847593   6.231   2.898   2.539 -0.6887  2.4510 -0.8391
  280PVA    C5047594   6.234   3.078   2.627  0.5572  0.6945 -0.2492
  280PVA    H9947595   6.235   3.120   2.729  0.8704  3.8473 -1.4518
  280PVA    O1747596   6.361   3.101   2.577  0.1941  1.0259 -0.3479
  280PVA   H10047597   6.341   3.185   2.532 -2.1149  3.8378  5.0172
  280PVA    C5147598   6.116   3.134   2.548  0.1780  0.3910 -0.3605
  280PVA   H10147599   6.022   3.081   2.568 -1.3173  2.6173 -1.1478
  280PVA   H10247600   6.132   3.099   2.445  1.3843 -1.8763  0.5253
  281PVA     C147601   7.404   5.720   5.069  1.0994  0.2382 -0.4852
  281PVA     H147602   7.327   5.707   4.992 -0.2507 -3.1769  1.2153
  281PVA     H247603   7.442   5.821   5.051  0.0069  0.5915 -0.8439
  281PVA     C247604   7.520   5.610   5.071 -0.4680  1.0677 -0.2651
  281PVA     H347605   7.580   5.661   5.147  0.2951 -0.8991  0.5132
  281PVA     O147606   7.477   5.485   5.121  0.5414 -0.7053 -0.0058
  281PVA     H447607   7.399   5.468   5.066  0.5832  2.6222 -1.3097
  281PVA     C347608   7.608   5.574   4.948 -0.7937 -0.8081 -0.1457
  281PVA     H547609   7.605   5.659   4.880  0.1719 -0.1833  0.5738
  281PVA     H647610   7.536   5.517   4.888 -2.4980  2.4997 -1.4835
  281PVA     C447611   7.748   5.487   4.967 -0.0024  0.1613  0.0309
  281PVA     H747612   0.059   5.564   4.986  0.8817 -0.6363 -0.2631
  281PVA     H847613   7.738   5.393   5.022 -0.7383 -0.1689 -0.6555
  281PVA     C547614   0.034   5.438   4.817  0.2008 -1.1674 -0.2962
  281PVA     H947615   0.010   5.529   4.762  0.0874 -0.0202  1.5791
  281PVA     O247616   7.728   5.326   4.766 -0.6920 -0.2651 -0.3844
  281PVA    H1047617   7.753   5.241   4.807 -0.8938 -1.3524 -2.3729
  281PVA     C647618   0.196   5.410   4.804 -1.0640  1.3266 -0.4370
  281PVA    H1147619   0.249   5.502   4.830  2.4755 -1.0301  1.5212
  281PVA    H1247620   0.221   5.348   4.892  1.4973 -0.6029 -2.3501
  281PVA     C747621   0.255   5.344   4.658 -0.0422 -0.9664 -0.4639
  281PVA    H1347622   0.226   5.427   4.591 -1.0848 -1.9475 -1.2816
  281PVA    H1447623   0.188   5.260   4.635 -1.2252 -0.9364  2.4633
  281PVA     C847624   0.417   5.313   4.654  0.3871  0.2174  0.4589
  281PVA    H1547625   0.429   5.225   4.717 -3.4053 -0.0848  0.9289
  281PVA     O347626   0.479   5.429   4.700  0.8037 -0.5628 -0.1468
  281PVA    H1647627   0.444   5.445   4.789  2.6656 -1.9543  0.9157
  281PVA     C947628   0.482   5.265   4.516  0.0747  0.9660  0.4674
  281PVA    H1747629   0.450   5.311   4.422  2.5063  0.3388 -0.7640
  281PVA    H1847630   0.446   5.162   4.512  2.3079 -0.0883  3.5192
  281PVA    C1047631   0.642   5.255   4.505 -0.6353  0.2675 -0.2915
  281PVA    H1947632   0.667   5.177   4.578 -1.6317  0.5998  0.4382
  281PVA    H2047633   0.692   5.352   4.510  2.5445 -1.1524 -1.7276
  281PVA    C1147634   0.716   5.179   4.381  0.8339  0.4200 -0.2124
  281PVA    H2147635   0.676   5.079   4.399 -3.3909  1.6954 -1.3691
  281PVA     O447636   0.665   5.217   4.251  0.8256 -0.1810  1.0954
  281PVA    H2247637   0.654   5.313   4.238 -3.2811 -0.5575  0.7091
  281PVA    C1247638   0.871   5.195   4.373 -0.1386  0.4556  0.4491
  281PVA    H2347639   0.901   5.290   4.327 -2.2786 -0.0684 -2.3185
  281PVA    H2447640   0.912   5.213   4.473  1.1230  0.9289 -0.1318
  281PVA    C1347641   0.949   5.082   4.280 -0.1143 -0.0096  0.3531
  281PVA    H2547642   0.902   5.075   4.181  0.5423  0.5076  0.0020
  281PVA    H2647643   0.922   4.981   4.315  0.7953  0.1299  1.5203
  281PVA    C1447644   1.108   5.106   4.271 -1.2422 -0.2771  0.3688
  281PVA    H2747645   1.137   5.106   4.377 -1.9792  1.1600  0.5852
  281PVA     O547646   1.144   5.218   4.207 -0.4266  0.3110 -0.1154
  281PVA    H2847647   1.224   5.240   4.258 -0.7480 -2.5969  1.8495
  281PVA    C1547648   1.182   4.985   4.182  0.0407 -0.3630  0.0707
  281PVA    H2947649   1.203   5.000   4.075 -0.1927  1.7520  0.2733
  281PVA    H3047650   1.102   4.913   4.201 -2.9071  2.5553 -0.4174
  281PVA    C1647651   1.324   4.949   4.229  0.0498 -0.3910  0.4938
  281PVA    H3147652   1.385   5.036   4.255 -2.7016  1.5606  0.8489
  281PVA    H3247653   1.307   4.887   4.318 -0.0895  1.3311  1.7149
  281PVA    C1747654   1.408   4.852   4.142 -0.6406 -0.2763 -0.0527
  281PVA    H3347655   1.364   4.883   4.046 -1.7696  2.4757  1.2507
  281PVA     O647656   1.376   4.716   4.159 -0.0067 -0.5463  0.1219
  281PVA    H3447657   1.339   4.704   4.248 -0.0951 -3.7315 -0.2218
  281PVA    C1847658   1.565   4.861   4.135  0.1530  0.3020 -0.3011
  281PVA    H3547659   1.604   4.921   4.218  3.0153  1.2673 -2.1821
  281PVA    H3647660   1.576   4.931   4.051 -1.5377  0.1389 -0.6861
  281PVA    C1947661   1.655   4.731   4.109  0.0187  0.0525  0.9955
  281PVA    H3747662   1.587   4.655   4.068 -0.1420  0.7513 -0.0964
  281PVA    H3847663   1.683   4.704   4.211 -1.7990 -1.9647  1.0226
  281PVA    C2047664   1.789   4.754   4.020 -0.9684 -0.2514 -0.5085
  281PVA    H3947665   1.792   4.772   3.911  1.5269  1.4310 -0.2540
  281PVA     O747666   1.848   4.867   4.086 -0.0208  0.8620  0.4367
  281PVA    H4047667   1.935   4.879   4.045 -1.0918 -0.5749 -2.5149
  281PVA    C2147668   1.895   4.623   4.021 -0.9085 -0.4397 -0.3821
  281PVA    H4147669   1.855   4.533   3.972  2.0692 -2.9184  1.3141
  281PVA    H4247670   1.883   4.586   4.123 -1.3504 -1.3144 -0.7345
  281PVA    C2247671   2.046   4.632   3.976  0.1112 -0.2765  1.2979
  281PVA    H4347672   2.059   4.697   3.889  0.5899  0.1511  1.6763
  281PVA    H4447673   2.088   4.671   4.070 -0.0780 -0.4144  1.4413
  281PVA    C2347674   2.126   4.505   3.928  0.4535 -0.5203 -0.6011
  281PVA    H4547675   2.096   4.431   4.004  0.7367 -0.8841 -0.8417
  281PVA     O847676   2.085   4.480   3.795 -0.4902  0.4153  0.2019
  281PVA    H4647677   2.127   4.552   3.746  0.1919 -1.1374 -1.6309
  281PVA    C2447678   2.283   4.529   3.925  0.7038  0.7946 -0.5192
  281PVA    H4747679   2.315   4.629   3.956 -3.7253  2.4158 -0.5734
  281PVA    H4847680   2.308   4.474   4.017  0.3656 -0.8966 -1.3912
  281PVA    C2547681   2.381   4.466   3.815  0.5301  0.1782  0.7346
  281PVA    H4947682   2.356   4.527   3.728 -1.6282 -0.4606  0.8623
  281PVA    H5047683   2.345   4.365   3.790  0.0490  1.1737 -3.3076
  281PVA    C2647684   2.538   4.432   3.834 -0.3682 -0.5497 -0.0443
  281PVA    H5147685   2.560   4.425   3.942 -0.6034  1.4767  0.1692
  281PVA     O947686   2.610   4.546   3.809  1.0020  0.4117  0.4615
  281PVA    H5247687   2.543   4.598   3.762  0.4729 -0.0842  0.6578
  281PVA    C2747688   2.596   4.314   3.747 -0.4769 -0.8317 -0.9116
  281PVA    H5347689   2.538   4.322   3.654 -1.7065  1.3234 -0.0313
  281PVA    H5447690   2.540   4.228   3.785 -0.5141  0.3294  1.8839
  281PVA    C2847691   2.755   4.291   3.733  0.4047  1.1210 -1.1033
  281PVA    H5547692   2.795   4.351   3.649  1.7360 -2.7032 -3.4732
  281PVA    H5647693   2.826   4.318   3.812 -0.5435 -0.1128  0.2034
  281PVA    C2947694   2.797   4.145   3.674 -1.0005 -0.9809  0.8835
  281PVA    H5747695   2.760   4.074   3.749 -3.1073 -3.9212 -2.6014
  281PVA    O1047696   2.715   4.109   3.563  0.3014 -0.6750 -0.6417
  281PVA    H5847697   2.745   4.162   3.488 -1.9500  3.3633  0.9940
  281PVA    C3047698   2.932   4.095   3.635 -0.4001  1.5767 -0.1293
  281PVA    H5947699   2.940   4.019   3.555  0.8540 -3.2424  4.0384
  281PVA    H6047700   2.982   4.190   3.616  1.4284  1.1470  2.1243
  281PVA    C3147701   3.019   4.022   3.750 -0.6112  0.2947  0.9475
  281PVA    H6147702   2.997   4.089   3.834 -3.6135  1.4525 -0.6151
  281PVA    H6247703   3.128   4.019   3.736 -0.3573 -1.8726  2.7740
  281PVA    C3247704   2.996   3.869   3.801  1.0470  0.7026  0.4178
  281PVA    H6347705   2.899   3.856   3.851  0.8482 -1.9144 -0.5374
  281PVA    O1147706   3.014   3.793   3.691  0.3519  0.6555  0.3165
  281PVA    H6447707   3.007   3.698   3.711  0.5330  0.7750  0.9675
  281PVA    C3347708   3.116   3.821   3.898 -0.4959  0.1196 -1.1147
  281PVA    H6547709   3.145   3.889   3.978  2.9295  0.0542 -2.1294
  281PVA    H6647710   3.210   3.805   3.843 -0.8846 -0.5143 -1.6149
  281PVA    C3447711   3.086   3.689   3.986 -0.1809  0.2766 -1.0168
  281PVA    H6747712   3.043   3.616   3.916  2.4786 -0.7820 -1.6786
  281PVA    H6847713   2.996   3.711   4.045 -0.4374 -1.1426 -0.8436
  281PVA    C3547714   3.209   3.617   4.056 -0.8778  0.1489  0.0801
  281PVA    H6947715   3.252   3.565   3.969  0.6720 -3.1154  2.5492
  281PVA    O1247716   3.303   3.723   4.089  0.1285  0.9175  0.7441
  281PVA    H7047717   3.271   3.780   4.160 -0.5363  0.7616  0.5765
  281PVA    C3647718   3.195   3.506   4.179  0.6998  1.0998  0.5937
  281PVA    H7147719   3.119   3.541   4.250  1.3773  0.1724  1.8148
  281PVA    H7247720   3.149   3.410   4.153  1.6613  0.4852  1.0569
  281PVA    C3747721   3.326   3.440   4.248  0.5171  0.5536  0.5996
  281PVA    H7347722   3.384   3.531   4.266 -1.2058  1.9237 -0.4148
  281PVA    H7447723   3.382   3.376   4.179 -0.3118  0.5467 -0.0859
  281PVA    C3847724   3.322   3.339   4.379  0.0078 -1.4058  1.1224
  281PVA    H7547725   3.278   3.390   4.466  0.6547 -2.5936  2.1740
  281PVA    O1347726   3.225   3.243   4.344  0.0704 -0.9047  0.0869
  281PVA    H7647727   3.183   3.244   4.432  1.7632 -0.9148  0.9257
  281PVA    C3947728   3.454   3.264   4.427 -0.7685  0.6954  0.0048
  281PVA    H7747729   3.542   3.311   4.382  1.2170 -0.6960  2.1940
  281PVA    H7847730   3.449   3.159   4.394  2.1497  0.2319  0.8110
  281PVA    C4047731   3.469   3.246   4.586 -0.6540 -0.2623 -0.5758
  281PVA    H7947732   3.576   3.269   4.599 -0.0714 -0.5188 -4.0473
  281PVA    H8047733   3.414   3.315   4.651 -1.5836 -0.7142 -0.8596
  281PVA    C4147734   3.459   3.099   4.654 -0.4776  0.8394 -0.7722
  281PVA    H8147735   3.404   3.050   4.573  1.6880 -2.7085 -0.3680
  281PVA    O1447736   3.584   3.015   4.656 -0.1297  0.2645  0.8420
  281PVA    H8247737   3.664   3.058   4.621 -0.0589 -1.7216 -1.8073
  281PVA    C4247738   3.393   3.081   4.802 -0.9135 -0.3858 -0.1702
  281PVA    H8347739   3.475   3.080   4.875 -1.7379  4.1557  1.1602
  281PVA    H8447740   3.351   3.180   4.825  0.5054  0.1915  0.0433
  281PVA    C4347741   3.313   2.957   4.868  0.3537 -0.2624  0.2585
  281PVA    H8547742   3.314   3.003   4.967 -2.1322  0.4241  0.0432
  281PVA    H8647743   3.384   2.879   4.898  2.8692  1.6881 -0.2920
  281PVA    C4447744   3.163   2.898   4.844 -0.3985 -0.9350  0.1599
  281PVA    H8747745   3.133   2.918   4.741 -2.8564 -0.0989  0.9531
  281PVA    O1547746   3.194   2.762   4.865  0.8212  0.6046 -0.4519
  281PVA    H8847747   3.246   2.732   4.788  1.9000  5.5401 -2.0089
  281PVA    C4547748   3.031   2.930   4.939  0.0637 -0.0517 -0.6809
  281PVA    H8947749   3.033   3.026   4.993  0.0123  2.5435 -4.8725
  281PVA    H9047750   3.034   2.852   5.016  2.3612 -0.2617 -0.9047
  281PVA    C4647751   2.875   2.930   4.897  0.3382 -0.5085 -0.9626
  281PVA    H9147752   2.869   3.013   4.826 -6.7337 -0.1541 -0.7134
  281PVA    H9247753   2.854   2.840   4.838 -0.8291 -0.5098 -0.5780
  281PVA    C4747754   2.753   2.936   5.003  0.1448  0.3794  0.0016
  281PVA    H9347755   2.761   3.029   5.061 -0.8693 -0.0666  0.9021
  281PVA    O1647756   2.770   2.823   5.096  0.2457 -1.2915 -1.0614
  281PVA    H9447757   2.782   2.742   5.043  2.2510 -3.3054  2.1609
  281PVA    C4847758   2.595   2.928   4.958 -0.0337  0.3664 -0.7063
  281PVA    H9547759   2.564   3.022   4.911  0.4230  0.5740 -0.6022
  281PVA    H9647760   2.579   2.841   4.893 -2.6917 -0.4966  0.9579
  281PVA    C4947761   2.477   2.912   5.067 -0.6249 -0.0430  1.2301
  281PVA    H9747762   2.501   2.978   5.152  1.7548  0.3289  0.3444
  281PVA    H9847763   2.513   2.818   5.112 -0.9242 -1.1445 -0.7429
  281PVA    C5047764   2.315   2.918   5.051 -0.0001  0.2653  0.5598
  281PVA    H9947765   2.282   2.824   5.004 -0.3005  0.2098  0.8769
  281PVA    O1747766   2.288   2.995   4.934  0.2454  0.2005 -0.2594
  281PVA   H10047767   2.191   2.991   4.928 -0.2970  2.8529  3.2353
  281PVA    C5147768   2.208   2.931   5.173 -0.8699  1.5024  0.1683
  281PVA   H10147769   2.195   3.028   5.222  1.1274  2.9113 -1.8571
  281PVA   H10247770   2.268   2.869   5.241  1.6326 -2.4686 -4.9379
  282PVA     C147771   5.811   3.433   1.815  0.2686  0.8852 -0.2082
  282PVA     H147772   5.744   3.509   1.772  2.3729  2.5207 -0.7704
  282PVA     H247773   5.855   3.357   1.750  2.1241 -0.4175  2.3950
  282PVA     C247774   5.936   3.521   1.865  0.9555 -0.0942 -1.3111
  282PVA     H347775   5.956   3.494   1.969 -1.2443 -0.9518 -1.0572
  282PVA     O147776   6.045   3.525   1.774 -0.2238  0.7154 -0.3492
  282PVA     H447777   6.079   3.597   1.830  0.9468 -1.6001  2.1200
  282PVA     C347778   5.889   3.669   1.898  0.1254  0.0022 -0.3676
  282PVA     H547779   5.832   3.671   1.991 -2.2605 -0.5182 -1.7320
  282PVA     H647780   5.831   3.695   1.808  1.8664 -5.2767 -3.5127
  282PVA     C447781   6.020   3.763   1.924  0.3592  0.5673  0.0153
  282PVA     H747782   6.113   3.753   1.866 -1.2066  3.2071 -3.3223
  282PVA     H847783   5.996   3.862   1.885  1.3937  2.2478  3.3207
  282PVA     C547784   6.059   3.769   2.076 -0.3776  0.9678 -0.0094
  282PVA     H947785   5.968   3.760   2.137 -2.2861  1.2256 -2.6139
  282PVA     O247786   6.130   3.654   2.104  0.4015 -0.2033 -0.2231
  282PVA    H1047787   6.186   3.685   2.177 -1.1350 -0.6486  1.1982
  282PVA     C647788   6.135   3.895   2.127  0.5814 -0.2502  0.9184
  282PVA    H1147789   6.231   3.903   2.075  0.0843  0.5185  0.0761
  282PVA    H1247790   6.078   3.988   2.117 -0.3468 -0.4360  3.7480
  282PVA     C747791   6.152   3.888   2.280 -0.4018  0.6943  0.3432
  282PVA    H1347792   6.203   3.793   2.300  0.7905  1.5867  1.7025
  282PVA    H1447793   6.055   3.883   2.331 -0.5851  3.1258  0.3665
  282PVA     C847794   6.255   3.994   2.344 -0.1007  0.9410 -0.1337
  282PVA    H1547795   6.203   4.088   2.325  0.5385  1.4532  0.5820
  282PVA     O347796   6.388   3.977   2.298 -0.2759 -0.2892 -0.6557
  282PVA    H1647797   6.457   3.991   2.366  0.6697 -5.2165 -0.2017
  282PVA     C947798   6.246   3.985   2.505  0.4689  0.6659 -0.5177
  282PVA    H1747799   6.146   3.999   2.548 -0.3233 -3.4326 -0.5831
  282PVA    H1847800   6.248   3.875   2.513  0.1547  0.5574 -1.7633
  282PVA    C1047801   6.362   4.043   2.594 -0.4563 -0.6943  1.3623
  282PVA    H1947802   6.418   4.123   2.545 -1.6889  0.6048  1.9780
  282PVA    H2047803   6.432   3.961   2.613  1.2760  0.5160  0.4678
  282PVA    C1147804   6.320   4.101   2.730 -0.4130  0.0675 -0.3495
  282PVA    H2147805   6.216   4.135   2.724 -1.4232 -1.3718  4.6169
  282PVA     O447806   6.324   3.992   2.832  0.0355  0.4198  0.0781
  282PVA    H2247807   6.369   4.023   2.912 -4.3802  0.5894  2.7766
  282PVA    C1247808   6.428   4.205   2.776  0.3749  0.3581  1.0254
  282PVA    H2347809   6.527   4.163   2.755 -1.5645 -4.1730 -0.4210
  282PVA    H2447810   6.414   4.298   2.720  0.3615  2.0666  3.6934
  282PVA    C1347811   6.410   4.274   2.916 -0.6055  0.1961 -0.2113
  282PVA    H2547812   6.314   4.236   2.953 -0.1188  0.0227  0.9323
  282PVA    H2647813   6.405   4.382   2.900 -0.6181 -0.0860 -2.3978
  282PVA    C1447814   6.507   4.222   3.028  0.0520 -0.1517 -1.1748
  282PVA    H2747815   6.607   4.211   2.985  1.8394  0.0569  2.5666
  282PVA     O547816   6.466   4.091   3.076 -0.0357 -0.5122 -0.5094
  282PVA    H2847817   6.429   4.099   3.166  0.2840 -4.3717  0.1392
  282PVA    C1547818   6.523   4.319   3.157 -1.1787 -0.8210 -0.1226
  282PVA    H2947819   6.436   4.296   3.220 -0.9225  4.4446  2.7170
  282PVA    H3047820   6.526   4.428   3.146  0.2707 -0.7893  0.3703
  282PVA    C1647821   6.650   4.297   3.239  0.1898  0.7361 -0.2282
  282PVA    H3147822   6.729   4.341   3.177  0.4865 -0.0252 -0.4104
  282PVA    H3247823   6.647   4.355   3.331 -1.8409  0.3670 -0.0150
  282PVA    C1747824   6.685   4.146   3.267 -0.5211  0.1922 -0.2614
  282PVA    H3347825   6.712   4.104   3.169  5.1735 -3.7942  2.4401
  282PVA     O647826   6.580   4.072   3.334 -0.1748 -0.0669  0.3095
  282PVA    H3447827   6.627   3.989   3.355  0.8635  0.6934  1.0827
  282PVA    C1847828   6.809   4.134   3.363 -0.7417 -0.4567  0.4172
  282PVA    H3547829   6.872   4.221   3.338  0.3885 -0.4892  2.8937
  282PVA    H3647830   6.775   4.157   3.464 -1.4898  0.9696 -0.1225
  282PVA    C1947831   6.883   4.001   3.356  0.1516 -0.8988  0.1329
  282PVA    H3747832   6.907   3.970   3.254 -0.3556  1.2318 -0.6918
  282PVA    H3847833   6.813   3.921   3.384 -1.1275  0.5572  1.3100
  282PVA    C2047834   7.000   3.993   3.443  0.1709 -0.8779 -0.2739
  282PVA    H3947835   6.970   4.032   3.541  0.7288  2.0409 -1.1933
  282PVA     O747836   7.083   4.096   3.381  0.3038 -0.1785 -0.0302
  282PVA    H4047837   7.059   4.091   3.287 -0.4078 -2.1348  0.1949
  282PVA    C2147838   7.085   3.865   3.423 -1.2209  0.8472  0.6019
  282PVA    H4147839   7.102   3.845   3.317 -1.2895 -2.6001  1.1194
  282PVA    H4247840   7.011   3.788   3.448  1.1598 -1.6050  0.5739
  282PVA    C2247841   7.203   3.846   3.519  0.1324  0.3900  0.2649
  282PVA    H4347842   7.274   3.929   3.535  0.2467  0.4169 -0.3781
  282PVA    H4447843   7.162   3.837   3.621 -2.5562 -2.0610 -0.8820
  282PVA    C2347844   7.308   3.735   3.476 -0.8523 -0.5701 -0.2294
  282PVA    H4547845   7.332   3.765   3.373 -0.7737  2.1529  0.5098
  282PVA     O847846   7.239   3.617   3.479 -0.0865 -0.7401 -0.8906
  282PVA    H4647847   7.158   3.623   3.425 -1.0022 -0.9231  0.4340
  282PVA    C2447848   7.435   3.726   3.567 -1.0655  1.0143 -0.3401
  282PVA    H4747849   7.439   3.639   3.635  0.7277 -1.2265 -3.0626
  282PVA    H4847850   7.452   3.810   3.635  3.4441 -3.4544  5.0743
  282PVA    C2547851   7.562   3.718   3.487 -0.1996 -0.1640  0.2207
  282PVA    H4947852   7.590   3.816   3.447  1.1126 -0.7963 -0.4943
  282PVA    H5047853   7.569   3.649   3.402 -0.7414  1.1832 -0.9536
  282PVA    C2647854   7.684   3.673   3.569 -1.4685  0.2761 -0.0232
  282PVA    H5147855   7.635   3.597   3.630 -1.4333  1.2177  1.2366
  282PVA     O947856   7.744   3.780   3.643  0.0650  0.1638  0.7107
  282PVA    H5247857   0.046   3.830   3.593 -1.9222  1.1985 -1.0852
  282PVA    C2747858   0.047   3.607   3.519 -0.1627  0.1530  0.2441
  282PVA    H5347859   0.112   3.689   3.486  1.1245  0.1548  2.5658
  282PVA    H5447860   0.023   3.543   3.433 -1.4855 -0.4625  1.0343
  282PVA    C2847861   0.129   3.526   3.627  0.2938 -0.0620 -0.3034
  282PVA    H5547862   0.068   3.445   3.670 -0.3216  1.6878  2.3701
  282PVA    H5647863   0.212   3.486   3.568  0.1547  0.0057 -0.5459
  282PVA    C2947864   0.180   3.600   3.748 -0.2590 -0.1172 -0.1350
  282PVA    H5747865   0.233   3.695   3.737  0.5959 -0.3610  1.4950
  282PVA    O1047866   0.074   3.618   3.841  0.2445 -0.3499  1.1034
  282PVA    H5847867   0.030   3.700   3.813 -2.9634 -2.3577 -0.3775
  282PVA    C3047868   0.273   3.511   3.834  0.0195  1.6570  0.5326
  282PVA    H5947869   0.210   3.439   3.888  0.3369 -0.9280 -2.2845
  282PVA    H6047870   0.335   3.450   3.768 -1.0175 -0.9976  1.8896
  282PVA    C3147871   0.356   3.576   3.945 -0.1279  1.4291  0.4792
  282PVA    H6147872   0.371   3.501   4.023 -0.6542  2.4587  1.6122
  282PVA    H6247873   0.304   3.658   3.995  0.1697  0.5152  2.3678
  282PVA    C3247874   0.488   3.639   3.877  0.3056 -0.3201  0.0435
  282PVA    H6347875   0.468   3.704   3.791  2.0781 -2.2362 -1.9404
  282PVA    O1147876   0.575   3.541   3.820 -0.3282  0.1452 -0.2319
  282PVA    H6447877   0.529   3.457   3.802 -1.4769  0.7228 -0.0854
  282PVA    C3347878   0.570   3.727   3.977 -0.7873  0.4258  0.4077
  282PVA    H6547879   0.607   3.660   4.056  2.0116 -1.1809 -2.0535
  282PVA    H6647880   0.507   3.808   4.016 -1.3970  1.4028 -2.4234
  282PVA    C3447881   0.703   3.778   3.911  0.0879 -0.6885  0.0538
  282PVA    H6747882   0.767   3.697   3.872  5.7540  2.0921  2.4349
  282PVA    H6847883   0.677   3.837   3.822  1.6141 -0.1168 -0.0437
  282PVA    C3547884   0.791   3.860   4.011 -0.3274 -0.8419 -0.3014
  282PVA    H6947885   0.733   3.950   4.037  0.1763  0.8424 -4.2617
  282PVA    O1247886   0.824   3.764   4.113 -0.5954  0.2992  0.5258
  282PVA    H7047887   0.743   3.720   4.142  0.3641 -2.6148 -0.8707
  282PVA    C3647888   0.920   3.925   3.943  0.2408 -0.3047  0.0838
  282PVA    H7147889   0.972   3.852   3.879 -0.4509  0.2538 -1.1726
  282PVA    H7247890   0.888   4.013   3.885  4.5642  1.8485  0.5720
  282PVA    C3747891   1.031   3.971   4.041  0.1626  0.0020 -0.3817
  282PVA    H7347892   0.992   4.002   4.138  0.3933  0.5744 -0.4654
  282PVA    H7447893   1.080   4.057   3.992 -0.4813  0.2124 -0.6739
  282PVA    C3847894   1.146   3.867   4.053 -0.9606 -0.8535 -0.6471
  282PVA    H7547895   1.197   3.839   3.960  5.5525 -1.0896  2.4394
  282PVA    O1347896   1.097   3.753   4.117  0.3799  0.7064 -0.1591
  282PVA    H7647897   1.003   3.760   4.141  0.5402  1.5038  0.2784
  282PVA    C3947898   1.256   3.940   4.131 -1.1769  0.7681 -0.8505
  282PVA    H7747899   1.218   3.975   4.228 -0.1789  1.0075 -0.5344
  282PVA    H7847900   1.288   4.029   4.075 -2.6151  1.4395 -0.6472
  282PVA    C4047901   1.387   3.855   4.141  0.1777 -0.9695 -0.0392
  282PVA    H7947902   1.413   3.851   4.034 -3.3049  1.3469 -1.1437
  282PVA    H8047903   1.455   3.906   4.211 -2.0849 -3.3753  4.3096
  282PVA    C4147904   1.384   3.708   4.189  0.3846  0.7404 -0.6278
  282PVA    H8147905   1.324   3.648   4.120 -1.4157  1.7629 -0.0449
  282PVA    O1447906   1.311   3.702   4.312  0.4769 -0.1611  0.3214
  282PVA    H8247907   1.232   3.748   4.279 -1.4726 -3.9818 -0.8659
  282PVA    C4247908   1.525   3.652   4.227 -0.6360  1.0203 -0.2987
  282PVA    H8347909   1.583   3.659   4.135  1.1461 -0.1614  0.6770
  282PVA    H8447910   1.576   3.713   4.302  3.0039  0.2344 -1.9039
  282PVA    C4347911   1.521   3.508   4.273 -0.1685  1.7098 -0.1460
  282PVA    H8547912   1.466   3.451   4.197  1.2868 -0.5157  0.3558
  282PVA    H8647913   1.468   3.513   4.369 -0.4182 -1.7286  0.0386
  282PVA    C4447914   1.659   3.441   4.311 -0.4724 -0.3740 -0.2301
  282PVA    H8747915   1.687   3.462   4.415  4.0362 -0.5345 -1.2032
  282PVA    O1547916   1.744   3.482   4.204 -0.3190  0.5153 -0.7897
  282PVA    H8847917   1.830   3.515   4.235 -0.2986 -1.1424  1.1701
  282PVA    C4547918   1.656   3.296   4.333  0.3979  0.3653  0.0093
  282PVA    H8947919   1.578   3.243   4.277 -2.3650  0.0597  3.7425
  282PVA    H9047920   1.760   3.266   4.317  0.5948 -1.0770  3.2422
  282PVA    C4647921   1.633   3.245   4.481  0.3790 -0.8371 -0.5958
  282PVA    H9147922   1.523   3.242   4.482  0.0261  3.0707 -3.3528
  282PVA    H9247923   1.676   3.308   4.560 -0.2121 -1.3226  0.1223
  282PVA    C4747924   1.685   3.094   4.512 -0.9427  0.2267 -0.0137
  282PVA    H9347925   1.621   3.038   4.443 -1.2432 -0.1638  0.5748
  282PVA    O1647926   1.822   3.083   4.487 -0.0823 -0.5828  0.3405
  282PVA    H9447927   1.853   3.175   4.493  1.3620 -0.9736 -0.5860
  282PVA    C4847928   1.655   3.045   4.654  1.0998  0.2493  0.7026
  282PVA    H9547929   1.666   3.138   4.711 -0.3709  1.3154 -0.6739
  282PVA    H9647930   1.552   3.012   4.637  2.2328 -3.8943  0.9450
  282PVA    C4947931   1.730   2.933   4.727 -1.0125 -0.5788 -1.2478
  282PVA    H9747932   1.836   2.960   4.721 -0.8283 -1.4741 -2.5888
  282PVA    H9847933   1.730   2.844   4.662 -3.5545 -1.5977  0.0020
  282PVA    C5047934   1.664   2.893   4.864 -0.3991 -0.5406  0.5726
  282PVA    H9947935   1.695   2.985   4.914  2.3794 -0.4943 -1.0359
  282PVA    O1747936   1.522   2.884   4.868 -0.0818  0.2803 -0.1568
  282PVA   H10047937   1.517   2.792   4.900 -3.0544 -0.1344 -1.4435
  282PVA    C5147938   1.737   2.789   4.941  0.4064  0.2737  0.2856
  282PVA   H10147939   1.664   2.716   4.977  0.5323 -0.5957 -1.1415
  282PVA   H10247940   1.793   2.722   4.874  0.4990 -1.0658  1.6370
  283PVA     C147941   5.437   3.101   1.934  0.7903  0.8983  0.1783
  283PVA     H147942   5.349   3.088   1.999  0.7126 -0.7123 -0.1937
  283PVA     H247943   5.510   3.035   1.982  0.3529  1.9369  2.4122
  283PVA     C247944   5.422   3.048   1.785  0.8937  0.1727 -0.2430
  283PVA     H347945   5.512   2.996   1.748 -0.8793 -0.8085 -3.6186
  283PVA     O147946   5.362   3.141   1.689  0.7988 -0.6513 -0.2432
  283PVA     H447947   5.425   3.146   1.615  0.5180 -1.3516 -0.5324
  283PVA     C347948   5.324   2.922   1.792 -0.1768 -0.0493 -0.1665
  283PVA     H547949   5.359   2.854   1.871 -1.2620  2.4989  2.7126
  283PVA     H647950   5.221   2.955   1.811 -0.4976 -1.2504  0.2713
  283PVA     C447951   5.319   2.844   1.650 -0.2275  0.9028 -1.0726
  283PVA     H747952   5.314   2.919   1.570  0.2457  2.3459  0.1828
  283PVA     H847953   5.416   2.793   1.652 -2.1170 -3.2072  2.5732
  283PVA     C547954   5.214   2.724   1.640  0.4950 -1.2553 -0.3643
  283PVA     H947955   5.122   2.772   1.676  1.0432 -0.6069  0.2190
  283PVA     O247956   5.244   2.638   1.741  0.2302  0.6714  0.0543
  283PVA    H1047957   5.341   2.628   1.739  0.2829 -0.6431  3.0058
  283PVA     C647958   5.186   2.654   1.506 -0.9622 -1.7248 -0.4063
  283PVA    H1147959   5.117   2.721   1.454 -0.1764 -2.2140 -2.1652
  283PVA    H1247960   5.277   2.653   1.445 -3.3940 -4.2091 -4.3964
  283PVA     C747961   5.134   2.499   1.499  0.5988  0.3455 -0.8683
  283PVA    H1347962   5.222   2.445   1.537  2.8031  3.7881 -0.6385
  283PVA    H1447963   5.070   2.498   1.588 -3.2436  1.8044 -3.4057
  283PVA     C847964   5.078   2.445   1.367 -0.4360 -0.0978 -0.5016
  283PVA    H1547965   4.990   2.502   1.337  2.0621  1.5443 -6.1329
  283PVA     O347966   5.172   2.453   1.257 -0.5915  0.2676  0.7923
  283PVA    H1647967   5.220   2.537   1.253  1.1612 -0.7143 -0.3520
  283PVA     C947968   5.031   2.290   1.375 -0.2906 -1.3535 -0.6676
  283PVA    H1747969   4.951   2.293   1.450  0.9323  1.2105  0.6939
  283PVA    H1847970   4.995   2.274   1.273 -0.5182 -0.3994 -0.7460
  283PVA    C1047971   5.141   2.182   1.393 -0.7421  0.0620 -0.1716
  283PVA    H1947972   5.228   2.212   1.334 -0.2730  2.6813  1.6811
  283PVA    H2047973   5.168   2.160   1.498  0.2853 -0.7099 -0.5766
  283PVA    C1147974   5.109   2.043   1.324  0.0402  0.1842 -0.2081
  283PVA    H2147975   5.023   1.988   1.364  0.1981 -1.0450 -1.4929
  283PVA     O447976   5.079   2.069   1.188 -0.5815 -0.1315 -0.2472
  283PVA    H2247977   5.155   2.126   1.167 -0.5294 -0.1066  0.0081
  283PVA    C1247978   5.237   1.941   1.320 -0.4066  0.7020 -0.4050
  283PVA    H2347979   5.336   1.988   1.322 -0.9435  1.8674 -0.1154
  283PVA    H2447980   5.232   1.891   1.418 -1.8338  1.5771  0.0038
  283PVA    C1347981   5.239   1.820   1.213  0.3227 -0.3740 -0.7022
  283PVA    H2547982   5.156   1.844   1.145  0.9424  0.3749 -1.2109
  283PVA    H2647983   5.192   1.731   1.257 -1.3593  0.6145 -0.4056
  283PVA    C1447984   5.368   1.765   1.151 -0.2024  0.5381 -0.7094
  283PVA    H2747985   5.447   1.837   1.176 -0.8916  0.7381  1.0479
  283PVA     O547986   5.422   1.658   1.234 -0.2739 -0.5323 -1.1246
  283PVA    H2847987   5.377   1.574   1.216 -4.3489  0.9104  0.8195
  283PVA    C1547988   5.385   1.703   1.011  0.4255 -0.5627 -0.4608
  283PVA    H2947989   5.328   1.610   1.014 -2.7925  1.1291 -3.2716
  283PVA    H3047990   5.345   1.785   0.951  3.1189  2.7199  1.8443
  283PVA    C1647991   5.525   1.707   0.946  0.2589 -0.7175  1.0389
  283PVA    H3147992   5.584   1.633   1.002 -0.4990 -4.1213 -2.2325
  283PVA    H3247993   5.577   1.803   0.951 -1.6583  0.3740  0.8133
  283PVA    C1747994   5.543   1.662   0.804 -0.2872  0.9720 -0.1867
  283PVA    H3347995   5.477   1.724   0.743 -1.3023 -3.0330 -3.6401
  283PVA     O647996   5.499   1.523   0.789 -0.0616  0.2310  0.2707
  283PVA    H3447997   5.418   1.500   0.838 -1.8246 -1.2220 -3.0382
  283PVA    C1847998   5.685   1.668   0.736  0.3175 -0.4544  0.3317
  283PVA    H3547999   5.753   1.705   0.813  1.0794 -1.6903  0.2776
  283PVA    H3648000   5.677   1.744   0.658  0.0219  0.5286  1.2961
  283PVA    C1948001   5.771   1.545   0.690  0.5259  0.0030 -0.3013
  283PVA    H3748002   5.715   1.484   0.618 -1.9232 -0.6239  1.9768
  283PVA    H3848003   5.798   1.472   0.767  3.3462 -0.7780 -1.8869
  283PVA    C2048004   5.891   1.600   0.610 -0.7311 -0.7960  0.1027
  283PVA    H3948005   5.903   1.707   0.633 -3.1014  0.7194 -4.4530
  283PVA     O748006   5.869   1.624   0.469 -0.7404  1.1567 -0.1095
  283PVA    H4048007   5.869   1.532   0.437  0.3627 -0.8351  4.8265
  283PVA    C2148008   6.026   1.520   0.606 -0.3298  1.0007  0.1479
  283PVA    H4148009   6.017   1.444   0.685 -0.5073 -1.3646 -2.0051
  283PVA    H4248010   6.026   1.463   0.512  2.4073  1.8507 -0.4563
  283PVA    C2248011   6.174   1.585   0.594 -0.0103  0.9611  0.8748
  283PVA    H4348012   6.197   1.644   0.684  2.9435  2.4775 -0.6973
  283PVA    H4448013   6.238   1.498   0.612 -2.0202 -0.3722  1.8664
  283PVA    C2348014   6.215   1.661   0.453 -0.2336  0.0870  0.4571
  283PVA    H4548015   6.145   1.738   0.416  1.0656  1.3388  0.5122
  283PVA     O848016   6.249   1.560   0.358  0.5671  0.0945  1.2365
  283PVA    H4648017   6.154   1.542   0.346 -0.2182  1.8791  3.8259
  283PVA    C2448018   6.352   1.726   0.488  0.0090 -0.1351  0.1181
  283PVA    H4748019   6.352   1.781   0.583 -1.6442 -0.7633  0.5114
  283PVA    H4848020   6.435   1.656   0.503 -0.4014 -1.2022 -2.1664
  283PVA    C2548021   6.410   1.831   0.387 -0.8353 -0.0807  0.0160
  283PVA    H4948022   6.314   1.877   0.360  1.2876  2.5880 -3.9942
  283PVA    H5048023   6.439   1.792   0.288 -0.0495 -2.3380  1.0488
  283PVA    C2648024   6.510   1.937   0.425  0.0455  1.8071 -0.1706
  283PVA    H5148025   6.473   1.991   0.512  6.7579  5.5824  1.0547
  283PVA     O948026   6.626   1.863   0.476 -0.4926  0.5179 -0.7828
  283PVA    H5248027   6.642   1.783   0.423  0.3602 -2.4175  3.3912
  283PVA    C2748028   6.549   2.022   0.304  0.1325 -0.2386 -0.4603
  283PVA    H5348029   6.457   2.072   0.274 -0.8688 -0.6737  1.6976
  283PVA    H5448030   6.572   1.957   0.219  3.2499 -1.7457  1.3401
  283PVA    C2848031   6.645   2.142   0.330  0.7317 -0.3179 -1.1540
  283PVA    H5548032   6.745   2.102   0.309  2.0369  2.5085 -0.9374
  283PVA    H5648033   6.636   2.185   0.431 -0.2608  3.3422 -2.6039
  283PVA    C2948034   6.631   2.273   0.246  0.4837  0.7470  0.1384
  283PVA    H5748035   6.562   2.339   0.299 -2.0253 -2.8253  1.6728
  283PVA    O1048036   6.580   2.233   0.122 -0.8058 -0.3498  1.2260
  283PVA    H5848037   6.656   2.265   0.070 -3.1762  0.4384 -2.1098
  283PVA    C3048038   6.763   2.338   0.224  0.7862 -0.9016  0.7701
  283PVA    H5948039   6.839   2.307   0.297 -0.8447 -2.6631  1.8252
  283PVA    H6048040   6.788   2.314   0.120 -2.1349  1.0320 -0.4921
  283PVA    C3148041   6.770   2.486   0.222 -0.8281  0.1909 -0.1654
  283PVA    H6148042   6.791   2.530   0.320 -0.0525 -4.1237  1.8039
  283PVA    H6248043   6.668   2.520   0.204 -2.2400 -3.0826  0.9590
  283PVA    C3248044   6.864   2.553   0.114  0.2396 -0.0370  0.3429
  283PVA    H6348045   6.957   2.493   0.115 -0.0078 -0.6255  3.9392
  283PVA    O1148046   6.812   2.530   8.081  0.1130 -0.5443 -0.4361
  283PVA    H6448047   6.755   2.602   8.050 -0.0088  0.7829  2.4805
  283PVA    C3348048   6.924   2.696   0.147 -0.2663 -0.3422 -0.2753
  283PVA    H6548049   6.848   2.772   0.170 -0.4250 -1.1259  2.0327
  283PVA    H6648050   6.972   2.680   0.244  4.8394  0.9774 -2.2056
  283PVA    C3448051   7.035   2.743   0.038  0.9916 -0.5819  0.1905
  283PVA    H6748052   7.130   2.693   0.060  2.1556  2.0773  1.6438
  283PVA    H6848053   7.004   2.704   8.037  1.0962 -2.3455  0.8338
  283PVA    C3548054   7.062   2.896   0.005 -0.0649  0.2526  0.0358
  283PVA    H6948055   6.987   2.945   8.038  1.9592  1.7063 -1.3221
  283PVA    O1248056   7.055   2.986   0.116 -0.1598 -0.6007 -1.2776
  283PVA    H7048057   7.110   2.943   0.184 -2.1388  0.9182  1.5076
  283PVA    C3648058   7.190   2.909   8.011  0.4742  1.1212  0.5862
  283PVA    H7148059   7.257   2.823   8.019  0.0831  0.9072  1.6605
  283PVA    H7248060   7.158   2.891   7.908  2.0799 -2.1303  0.5329
  283PVA    C3748061   7.259   3.045   7.999  0.6073 -0.3909 -0.7605
  283PVA    H7348062   7.297   3.062   0.003  5.1496  1.7047 -2.5190
  283PVA    H7448063   7.195   3.116   7.945  2.4946  3.2137  1.3895
  283PVA    C3848064   7.402   3.044   7.919  0.3761 -0.2717  0.0611
  283PVA    H7548065   7.463   2.962   7.960 -1.1168 -3.4964 -3.5039
  283PVA    O1348066   7.387   3.019   7.786 -0.4592  0.3764 -0.0088
  283PVA    H7648067   7.336   2.936   7.782  3.8052 -2.5770  0.2638
  283PVA    C3948068   7.458   3.188   7.930 -0.2342 -0.8441  0.2802
  283PVA    H7748069   7.448   3.232   8.030 -1.8253 -1.7668  0.5646
  283PVA    H7848070   7.383   3.258   7.891  1.0737  1.5492  1.8561
  283PVA    C4048071   7.591   3.244   7.851 -0.1111 -0.4419  0.0923
  283PVA    H7948072   7.618   3.165   7.780 -2.8870 -0.1610 -1.4360
  283PVA    H8048073   7.558   3.333   7.796 -1.8678 -1.2210 -0.1784
  283PVA    C4148074   7.706   3.296   7.951  0.1601 -0.1090 -1.7082
  283PVA    H8148075   7.744   3.200   7.987  5.4317  2.2099 -0.1510
  283PVA    O1448076   7.657   3.367   8.066  0.3229 -0.2978  0.4301
  283PVA    H8248077   7.699   3.451   8.093  0.7617 -1.3842  3.6623
  283PVA    C4248078   0.071   3.360   7.893  0.2092  0.9414 -0.2645
  283PVA    H8348079   0.070   3.308   7.796 -4.1934 -0.1459  0.1390
  283PVA    H8448080   0.071   3.469   7.886 -2.7629  1.0221 -0.4215
  283PVA    C4348081   0.214   3.340   7.959 -0.1632  0.0111 -0.6444
  283PVA    H8548082   0.253   3.241   7.932  2.6179  0.5392  1.0308
  283PVA    H8648083   0.197   3.341   8.067 -4.2382 -0.9271 -1.1279
  283PVA    C4448084   0.334   3.437   7.916  0.1321 -0.4190 -0.3693
  283PVA    H8748085   0.321   3.522   7.984  3.5714  1.2647 -1.5763
  283PVA    O1548086   0.322   3.485   7.784 -0.4288 -0.3823 -0.1303
  283PVA    H8848087   0.361   3.572   7.768  0.1603 -0.4751  0.7322
  283PVA    C4548088   0.483   3.372   7.945  0.8023 -1.2695 -0.4730
  283PVA    H8948089   0.496   3.305   7.859  1.9445  0.6410 -1.8584
  283PVA    H9048090   0.479   3.305   8.032  1.5275 -3.6680 -2.2181
  283PVA    C4648091   0.621   3.456   7.957 -1.1293 -1.9109 -0.1023
  283PVA    H9148092   0.638   3.501   7.858 -0.0521 -0.3061  0.7573
  283PVA    H9248093   0.585   3.541   8.016  0.4812 -1.6159  0.5221
  283PVA    C4748094   0.759   3.406   8.009  0.3673  0.2206  0.8157
  283PVA    H9348095   0.747   3.386   0.020  0.0423  0.8709  0.9032
  283PVA    O1648096   0.791   3.292   7.944  0.1808  0.8838  0.8677
  283PVA    H9448097   0.733   3.287   7.866 -0.8454  2.0423  1.5209
  283PVA    C4848098   0.874   3.521   8.000  0.2008  1.0958 -0.1606
  283PVA    H9548099   0.855   3.606   8.067  1.6928  0.4622  1.1248
  283PVA    H9648100   0.881   3.567   7.900  1.7693  1.5166  0.1112
  283PVA    C4948101   1.023   3.464   8.041  0.5409 -0.3141 -0.8449
  283PVA    H9748102   1.014   3.417   0.042 -0.5078  0.3854 -0.5841
  283PVA    H9848103   1.047   3.378   7.976  2.2661 -2.1182  1.9657
  283PVA    C5048104   1.146   3.567   8.017  0.0510  0.6568 -0.8291
  283PVA    H9948105   1.158   3.556   7.909 -1.7733  0.4253 -1.0409
  283PVA    O1748106   1.107   3.697   8.056 -1.0136 -1.0380  0.2686
  283PVA   H10048107   1.016   3.694   8.022 -0.6132 -0.5876 -0.9049
  283PVA    C5148108   1.282   3.521   8.086 -1.2132 -1.4061 -0.5452
  283PVA   H10148109   1.260   3.414   8.095  0.0849 -1.7101 -0.7828
  283PVA   H10248110   1.365   3.543   8.018 -2.8018 -0.8713 -2.3790
  284PVA     C148111   1.408   3.447   5.868 -0.1491  0.5963 -0.9424
  284PVA     H148112   1.369   3.358   5.918 -0.9920 -0.8299 -3.9172
  284PVA     H248113   1.517   3.443   5.877 -0.2423 -0.1713  0.0253
  284PVA     C248114   1.351   3.570   5.954 -0.1247  0.3665  0.0294
  284PVA     H348115   1.357   3.530   6.056  2.4568  5.8080  2.4185
  284PVA     O148116   1.221   3.608   5.930 -0.3192 -0.3576 -0.2220
  284PVA     H448117   1.218   3.668   5.853 -0.3777 -0.5654 -0.3848
  284PVA     C348118   1.442   3.685   5.959  0.2858  0.5673  0.1675
  284PVA     H548119   1.465   3.726   5.860 -2.5225 -1.7874 -1.6178
  284PVA     H648120   1.535   3.646   6.002  2.2297  3.5830 -0.9387
  284PVA     C448121   1.407   3.803   6.059 -0.4805  0.2761 -0.4570
  284PVA     H748122   1.317   3.860   6.032 -0.7690  0.1790  0.2754
  284PVA     H848123   1.366   3.771   6.155 -0.6267  2.8682  0.4188
  284PVA     C548124   1.528   3.900   6.082  0.4130  0.6642  0.2974
  284PVA     H948125   1.589   3.875   5.995 -0.8117  0.7016 -0.5939
  284PVA     O248126   1.575   3.855   6.200 -0.3309  0.5390 -0.3888
  284PVA    H1048127   1.579   3.757   6.197  2.0647  0.5787 -2.8165
  284PVA     C648128   1.495   4.052   6.086 -0.9759 -0.2210 -0.5424
  284PVA    H1148129   1.450   4.092   5.995 -0.5233 -1.2273 -1.2372
  284PVA    H1248130   1.428   4.068   6.171 -1.7448 -5.2430  0.1173
  284PVA     C748131   1.620   4.146   6.103  0.0126 -1.0602  0.5196
  284PVA    H1348132   1.694   4.114   6.029 -0.7348 -0.7218 -0.3934
  284PVA    H1448133   1.669   4.144   6.201  3.7938  1.5253 -1.0956
  284PVA     C848134   1.608   4.306   6.085 -0.4386 -0.5161  0.2174
  284PVA    H1548135   1.504   4.308   6.050 -0.8807  0.6533  1.5062
  284PVA     O348136   1.697   4.343   5.984 -0.9995  0.1604 -0.2597
  284PVA    H1648137   1.678   4.437   5.967 -1.2465 -0.1697 -2.0749
  284PVA     C948138   1.634   4.395   6.212 -0.7860  0.1522  0.6436
  284PVA    H1748139   1.644   4.329   6.299  2.8678  0.5190  0.6266
  284PVA    H1848140   1.541   4.453   6.223  0.2666  1.7303  1.6397
  284PVA    C1048141   1.752   4.500   6.218 -0.1176 -0.0555  0.0164
  284PVA    H1948142   1.782   4.547   6.123  1.6071 -0.2734  0.4177
  284PVA    H2048143   1.841   4.447   6.253 -2.4259 -1.7018  4.1393
  284PVA    C1148144   1.736   4.592   6.342 -0.0265  0.2414  0.2299
  284PVA    H2148145   1.760   4.517   6.418  1.9993 -3.2477 -3.4182
  284PVA     O448146   1.603   4.619   6.366 -0.1321  0.4358 -0.7736
  284PVA    H2248147   1.611   4.694   6.427 -0.5259 -0.0701 -0.0857
  284PVA    C1248148   1.834   4.707   6.367 -0.2388 -0.8828  0.9581
  284PVA    H2348149   1.935   4.664   6.373  1.3905  2.7729  2.8518
  284PVA    H2448150   1.841   4.776   6.282  0.5546 -1.2057  0.7436
  284PVA    C1348151   1.820   4.785   6.494 -0.3320  0.0259 -1.2697
  284PVA    H2548152   1.797   4.705   6.565  2.1220 -3.2450 -3.8331
  284PVA    H2648153   1.741   4.861   6.502  0.2684  0.5191  0.0553
  284PVA    C1448154   1.928   4.873   6.563 -1.1227 -1.6090 -1.0892
  284PVA    H2748155   1.966   4.955   6.501 -0.8392 -1.1335 -0.2983
  284PVA     O548156   2.033   4.793   6.574  0.5244  0.7969  0.3700
  284PVA    H2848157   2.020   4.732   6.649 -2.2193  2.9281  1.7921
  284PVA    C1548158   1.884   4.905   6.706 -0.3207  0.5429  0.3974
  284PVA    H2948159   1.821   4.830   6.754 -0.3592  2.4563  3.6337
  284PVA    H3048160   1.814   4.988   6.689 -0.0236  0.6937 -0.1463
  284PVA    C1648161   1.978   4.966   6.799 -0.4554 -0.5716 -1.1317
  284PVA    H3148162   2.024   5.052   6.748 -1.2707 -0.5499 -1.8416
  284PVA    H3248163   2.072   4.910   6.803 -1.4125 -2.2745 -1.5731
  284PVA    C1748164   1.933   4.998   6.954  0.2722  0.0524 -0.4957
  284PVA    H3348165   1.865   5.082   6.935 -3.8409 -2.5405  1.5137
  284PVA     O648166   1.856   4.899   7.027  0.0654 -0.3117 -0.7866
  284PVA    H3448167   1.927   4.842   7.062 -0.8702  0.7258  3.2948
  284PVA    C1848168   2.051   5.039   7.053 -0.6531  0.0575 -0.0111
  284PVA    H3548169   2.016   5.009   7.152  3.2090 -0.5613  1.3693
  284PVA    H3648170   2.140   4.978   7.028 -1.0146  0.1891 -1.7340
  284PVA    C1948171   2.116   5.184   7.057 -0.0856  0.5481 -0.1606
  284PVA    H3748172   2.072   5.243   6.976 -0.1313  1.2371  0.3564
  284PVA    H3848173   2.220   5.178   7.024  0.6116 -3.8906  2.0760
  284PVA    C2048174   2.117   5.257   7.196 -0.2759  0.0884 -1.1783
  284PVA    H3948175   2.018   5.229   7.233 -1.7980  5.4197 -0.4585
  284PVA     O748176   2.216   5.207   7.275 -0.0561  0.0186  0.3342
  284PVA    H4048177   2.187   5.138   7.337  1.3872 -1.3450 -0.4285
  284PVA    C2148178   2.124   5.417   7.218 -0.1698  0.2359  0.9922
  284PVA    H4148179   2.067   5.462   7.136 -3.9786  1.9505  4.2706
  284PVA    H4248180   2.226   5.457   7.218 -1.1123  2.8021  1.2306
  284PVA    C2248181   2.042   5.461   7.347 -0.3622 -0.8369 -0.4045
  284PVA    H4348182   1.962   5.391   7.370 -1.6815  0.4305 -0.9753
  284PVA    H4448183   2.120   5.456   7.425  1.3554 -4.4867 -2.1148
  284PVA    C2348184   1.972   5.597   7.330 -0.7511 -0.9304 -0.1959
  284PVA    H4548185   1.958   5.602   7.221  1.2993  1.8488 -0.4510
  284PVA     O848186   2.062   5.703   7.362 -0.7594  0.1517 -0.2495
  284PVA    H4648187   2.129   5.720   7.293 -4.6605  1.5304 -4.1364
  284PVA    C2448188   1.824   5.613   7.388 -0.9977  0.3724  0.1910
  284PVA    H4748189   1.762   5.523   7.400 -3.6287  2.2797  2.0863
  284PVA    H4848190   1.850   5.639   7.491  3.9649  1.1032 -1.0274
  284PVA    C2548191   1.732   5.736   7.349 -0.1008  0.6914  0.3293
  284PVA    H4948192   1.780   5.825   7.306  1.8233 -1.1628 -1.6256
  284PVA    H5048193   1.686   5.777   7.440 -0.5657 -2.3955  1.6123
  284PVA    C2648194   1.622   5.697   7.245 -0.2040 -0.5103  0.7823
  284PVA    H5148195   1.622   5.587   7.245  1.1230 -0.7633 -4.2836
  284PVA     O948196   1.644   5.734   7.112  0.7333  0.1261 -0.7417
  284PVA    H5248197   1.557   5.735   7.068 -1.4446 -1.3771  3.0171
  284PVA    C2748198   1.477   5.731   7.259 -0.3176 -0.6508 -0.1011
  284PVA    H5348199   1.464   5.838   7.241 -3.3099 -1.2163 -1.8962
  284PVA    H5448200   1.466   5.728   7.368  1.5754  3.9226  0.4198
  284PVA    C2848201   1.370   5.645   7.202  1.6524  1.7479  1.2918
  284PVA    H5548202   1.389   5.646   7.094  1.0064  2.6431  1.1749
  284PVA    H5648203   1.373   5.538   7.229 -3.4790  0.2142 -2.6121
  284PVA    C2948204   1.224   5.703   7.247 -0.6891 -0.6654  0.6683
  284PVA    H5748205   1.241   5.724   7.354 -1.1349 -0.4868  0.7065
  284PVA    O1048206   1.194   5.814   7.169  0.3173  0.3806 -0.5854
  284PVA    H5848207   1.240   5.812   7.083  4.0326  0.0722  1.1954
  284PVA    C3048208   1.114   5.584   7.235  0.3719 -0.7684  0.5136
  284PVA    H5948209   1.045   5.630   7.164  1.6424  4.8702  2.3738
  284PVA    H6048210   1.161   5.496   7.189 -0.8630 -0.3891 -1.5793
  284PVA    C3148211   1.026   5.562   7.365  0.1151 -0.0614 -0.1925
  284PVA    H6148212   0.991   5.660   7.400  0.1081  0.2512 -1.0475
  284PVA    H6248213   1.099   5.539   7.443 -2.9320 -4.3682  1.7840
  284PVA    C3248214   0.911   5.457   7.363 -0.9112 -0.1605 -0.6282
  284PVA    H6348215   0.856   5.475   7.269  0.5050 -1.6070 -1.7937
  284PVA    O1148216   0.975   5.328   7.366  0.5269  0.2878  0.4739
  284PVA    H6448217   1.020   5.330   7.452  3.4177  2.2424 -0.9198
  284PVA    C3348218   0.803   5.475   7.472 -0.3251  0.8811 -0.1721
  284PVA    H6548219   0.716   5.530   7.433 -1.8994  0.9260  3.0277
  284PVA    H6648220   0.838   5.545   7.549 -2.7419  3.1538 -0.9738
  284PVA    C3448221   0.777   5.346   7.551  0.1328  0.1809 -0.0431
  284PVA    H6748222   0.759   5.267   7.478  2.0087 -0.6444  0.3232
  284PVA    H6848223   0.861   5.303   7.607  0.5397  2.2965  1.0953
  284PVA    C3548224   0.651   5.332   7.641  0.6620 -0.0458  1.4319
  284PVA    H6948225   0.647   5.422   7.704 -2.2732  3.9180 -3.5908
  284PVA    O1248226   0.548   5.351   7.549  0.0676 -0.1302  1.1106
  284PVA    H7048227   0.485   5.278   7.538 -1.2852  1.4258 -3.7189
  284PVA    C3648228   0.631   5.198   7.723  0.3581 -0.1132 -0.8608
  284PVA    H7148229   0.718   5.138   7.691 -0.0635 -1.5004  0.4790
  284PVA    H7248230   0.655   5.222   7.827  1.0526  1.7285 -1.4106
  284PVA    C3748231   0.496   5.120   7.703  0.6415 -0.1330 -0.1863
  284PVA    H7348232   0.466   5.088   7.602 -1.0442 -2.8103  1.0764
  284PVA    H7448233   0.421   5.196   7.731  4.1903  3.0869  1.5825
  284PVA    C3848234   0.486   4.999   7.788 -1.0017  0.7584 -0.4439
  284PVA    H7548235   0.376   4.996   7.792 -1.3539  2.6752 -4.2428
  284PVA    O1348236   0.538   5.012   7.919  0.2826  0.0220  0.2614
  284PVA    H7648237   0.495   5.095   7.945 -1.3120 -0.7611  0.2594
  284PVA    C3948238   0.530   4.857   7.726  0.4056 -0.0238  0.6094
  284PVA    H7748239   0.631   4.859   7.682  0.3908  2.4943  0.5706
  284PVA    H7848240   0.465   4.848   7.638  1.0329  2.1102 -0.1392
  284PVA    C4048241   0.503   4.733   7.814 -1.6329  1.0107 -0.1372
  284PVA    H7948242   0.580   4.737   7.892 -1.2660 -3.5010  0.0167
  284PVA    H8048243   0.402   4.734   7.857 -0.8691  3.5497  1.8545
  284PVA    C4148244   0.537   4.603   7.723 -0.3880  1.2221  0.3194
  284PVA    H8148245   0.643   4.616   7.698 -0.3092 -1.9826 -1.5585
  284PVA    O1448246   0.461   4.591   7.606 -0.3872 -0.2352 -1.0677
  284PVA    H8248247   0.456   4.668   7.547 -0.4542  2.4285  2.1651
  284PVA    C4248248   0.526   4.470   7.798  0.4090 -0.0659 -0.2905
  284PVA    H8348249   0.571   4.491   7.896  0.6705 -4.9245  0.8767
  284PVA    H8448250   0.419   4.455   7.818  0.0400  0.8973 -1.3927
  284PVA    C4348251   0.600   4.346   7.736 -0.6776 -0.4406 -1.7785
  284PVA    H8548252   0.668   4.376   7.655  1.6896  0.2865  0.3114
  284PVA    H8648253   0.510   4.299   7.696 -2.0333 -1.6563  2.2237
  284PVA    C4448254   0.661   4.227   7.808  1.3174 -0.2494  0.2609
  284PVA    H8748255   0.633   4.139   7.749 -0.6213  1.0884 -0.9175
  284PVA    O1548256   0.609   4.204   7.940 -0.0893  0.0496 -0.1533
  284PVA    H8848257   0.604   4.283   7.997 -2.4536 -2.1803  3.0918
  284PVA    C4548258   0.814   4.203   7.781 -0.4207  0.4889  1.3708
  284PVA    H8948259   0.873   4.293   7.802  0.1271  1.2629 -2.6151
  284PVA    H9048260   0.835   4.191   7.674 -1.3745  1.0929  1.0980
  284PVA    C4648261   0.892   4.086   7.837  0.2988  0.8834 -1.1833
  284PVA    H9148262   0.856   4.089   7.941 -1.3046  3.4861 -1.7012
  284PVA    H9248263   0.863   3.995   7.783  0.8489  2.8717 -5.1848
  284PVA    C4748264   1.043   4.081   7.826  0.6721 -0.2855 -0.0923
  284PVA    H9348265   1.089   4.174   7.861  2.4975  0.4743 -3.9529
  284PVA    O1648266   1.079   4.066   7.685  0.2101  0.0473  0.2730
  284PVA    H9448267   1.155   4.122   7.662 -0.6285  1.6232  1.1544
  284PVA    C4848268   1.100   3.960   7.903 -0.0199  0.6373 -1.4068
  284PVA    H9548269   1.029   3.942   7.985 -1.1570  1.4787 -2.1687
  284PVA    H9648270   1.083   3.869   7.843  1.5948 -0.9462  0.3862
  284PVA    C4948271   1.244   3.972   7.956 -1.0095 -0.5724 -0.4190
  284PVA    H9748272   1.294   4.046   7.892 -4.2789 -1.2256 -4.0879
  284PVA    H9848273   1.289   3.877   7.924 -1.6765 -0.8747 -0.4672
  284PVA    C5048274   1.274   3.998   0.015 -0.7915 -0.1349  0.3479
  284PVA    H9948275   1.189   3.947   0.063 -0.3524 -1.1743  0.0339
  284PVA    O1748276   1.263   4.139   0.053  0.3444  0.7285 -0.7241
  284PVA   H10048277   1.343   4.183   0.021  1.8544 -0.7096  0.8491
  284PVA    C5148278   1.410   3.959   0.086 -0.2272  0.2317  0.7148
  284PVA   H10148279   1.403   3.993   0.190 -0.7702  2.6868 -0.0591
  284PVA   H10248280   1.497   4.008   0.040 -0.6103 -1.8841 -2.6192
  285PVA     C148281   1.094   3.301   5.852  0.0193  1.3921 -0.6177
  285PVA     H148282   1.065   3.199   5.879  5.0241 -0.1820 -0.2356
  285PVA     H248283   1.164   3.326   5.932  0.1420 -1.0566  0.1016
  285PVA     C248284   0.962   3.399   5.864 -0.1205  0.2163 -0.4909
  285PVA     H348285   0.981   3.476   5.788  3.1530 -1.2140 -1.3087
  285PVA     O148286   0.849   3.326   5.856 -0.1775  0.4383  0.1534
  285PVA     H448287   0.852   3.342   5.760  1.2646  1.7473  0.3869
  285PVA     C348288   0.936   3.486   5.992  0.0342 -0.3855  0.8074
  285PVA     H548289   1.036   3.500   6.034  0.7822 -0.5744 -0.8114
  285PVA     H648290   0.886   3.415   6.059  0.0703 -0.8507  0.3486
  285PVA     C448291   0.851   3.622   5.964 -0.7817  0.2026 -0.8314
  285PVA     H748292   0.911   3.691   5.904 -2.1120 -1.7065 -4.6354
  285PVA     H848293   0.770   3.584   5.902  0.4583 -1.2324 -1.6487
  285PVA     C548294   0.796   3.713   6.091  0.4029  0.3223 -0.2205
  285PVA     H948295   0.882   3.773   6.125 -0.8170  0.2827  3.3381
  285PVA     O248296   0.737   3.638   6.186  0.1951  1.2059 -0.6354
  285PVA    H1048297   0.644   3.649   6.161 -0.3605  0.2032  0.8697
  285PVA     C648298   0.692   3.837   6.072  0.5435  0.9859 -0.2437
  285PVA    H1148299   0.592   3.808   6.038 -0.2485  1.1243  1.8663
  285PVA    H1248300   0.715   3.907   5.991 -3.4281  0.6280 -1.8819
  285PVA     C748301   0.683   3.918   6.213 -0.0923  0.4290 -0.3170
  285PVA    H1348302   0.656   3.836   6.281 -1.3253  0.3218 -0.9063
  285PVA    H1448303   0.770   3.968   6.258  1.0819  0.1221 -2.1363
  285PVA     C848304   0.558   4.023   6.227  1.2155 -0.7843 -0.2511
  285PVA    H1548305   0.584   4.097   6.151 -1.4646 -1.8777 -2.3950
  285PVA     O348306   0.434   3.959   6.182 -0.8312  0.1695  0.4796
  285PVA    H1648307   0.432   3.966   6.085  3.4251 -2.4505 -0.0632
  285PVA     C948308   0.531   4.107   6.359  0.9653 -1.3920 -0.3415
  285PVA    H1748309   0.586   4.198   6.332 -0.8253  0.2288  1.2201
  285PVA    H1848310   0.591   4.062   6.439 -2.3211 -2.8837  1.4500
  285PVA    C1048311   0.385   4.161   6.407 -0.4414  0.2554 -0.7291
  285PVA    H1948312   0.331   4.205   6.323 -0.4889  0.6662 -0.4834
  285PVA    H2048313   0.314   4.086   6.445 -1.5373  1.5077 -0.2288
  285PVA    C1148314   0.387   4.265   6.525  0.1077 -0.2322 -0.0686
  285PVA    H2148315   0.444   4.237   6.614  1.4550 -2.3134 -1.4660
  285PVA     O448316   0.424   4.379   6.464 -0.2909  0.6041 -0.4620
  285PVA    H2248317   0.363   4.437   6.514 -1.0911 -0.7768  0.2266
  285PVA    C1248318   0.238   4.306   6.558  0.9402 -0.0230 -0.8085
  285PVA    H2348319   0.175   4.356   6.483  4.0609  2.2843 -2.1135
  285PVA    H2448320   0.184   4.211   6.564  0.7033  0.1863  3.5382
  285PVA    C1348321   0.227   4.384   6.693 -0.0738  0.1712  0.2070
  285PVA    H2548322   0.277   4.482   6.695 -0.3077  0.3079  3.0049
  285PVA    H2648323   0.261   4.313   6.769  2.2511 -0.8267 -1.6267
  285PVA    C1448324   0.082   4.434   6.739 -0.7827  0.0306  0.2828
  285PVA    H2748325   0.031   4.337   6.739 -1.6472  0.4821  0.7819
  285PVA     O548326   0.032   4.503   6.637  1.0093 -0.9179  0.2667
  285PVA    H2848327   7.763   4.442   6.569 -0.3554 -0.4594  0.5205
  285PVA    C1548328   0.059   4.503   6.881  0.7416 -0.2856  0.3036
  285PVA    H2948329   0.115   4.438   6.949  0.7350 -3.7656 -2.6732
  285PVA    H3048330   0.096   4.606   6.878 -2.6453  1.0568 -1.2688
  285PVA    C1648331   7.679   4.519   6.936 -0.0951 -0.2103  0.0062
  285PVA    H3148332   7.629   4.592   6.871 -0.5385 -0.9821 -0.5300
  285PVA    H3248333   7.619   4.431   6.910 -0.2426 -1.1410  3.1525
  285PVA    C1748334   7.644   4.570   7.081 -0.8705  0.2647  0.4752
  285PVA    H3348335   7.690   4.669   7.093 -1.2975  0.8727 -2.2501
  285PVA     O648336   7.704   4.487   7.176  1.1284  0.6651 -0.1780
  285PVA    H3448337   7.635   4.420   7.190 -1.4830  3.0804 -0.5101
  285PVA    C1848338   7.500   4.565   7.119 -0.3926 -0.4295 -0.4123
  285PVA    H3548339   7.449   4.626   7.044 -0.0032  0.4796  0.0522
  285PVA    H3648340   7.473   4.459   7.109 -0.8618 -0.4091  0.5091
  285PVA    C1948341   7.458   4.626   7.263 -0.0415  0.6060  0.4960
  285PVA    H3748342   7.472   4.545   7.335  0.7291  0.4128  0.1337
  285PVA    H3848343   7.512   4.716   7.295  2.7848 -0.7410 -0.2338
  285PVA    C2048344   7.300   4.650   7.292 -0.5443  0.9636  0.6287
  285PVA    H3948345   7.273   4.748   7.252 -2.5245  0.5180  0.7918
  285PVA     O748346   7.241   4.549   7.221  0.1877 -0.3301  0.2266
  285PVA    H4048347   7.239   4.578   7.128 -2.9832 -0.4142  0.1519
  285PVA    C2148348   7.243   4.661   7.441  0.3009 -0.4897  0.5203
  285PVA    H4148349   7.302   4.743   7.483  2.4257 -1.3389 -0.6508
  285PVA    H4248350   7.290   4.606   7.524 -3.1384 -1.6616  1.8907
  285PVA    C2248351   7.087   4.671   7.454 -1.3632  0.0700 -1.0613
  285PVA    H4348352   7.038   4.757   7.405  2.0592  2.8367 -0.0004
  285PVA    H4448353   7.038   4.583   7.410 -2.7765 -0.9960  2.3126
  285PVA    C2348354   7.039   4.695   7.596  0.1905 -0.5814 -0.1989
  285PVA    H4548355   7.100   4.633   7.664 -1.8189 -3.6839 -1.0393
  285PVA     O848356   7.057   4.834   7.617 -0.3525  0.5056  0.8384
  285PVA    H4648357   7.008   4.856   7.698 -2.6123  2.1796 -0.8516
  285PVA    C2448358   6.889   4.667   7.631 -0.5201 -1.0452 -0.6095
  285PVA    H4748359   6.837   4.744   7.573  1.4845  1.0752  0.2148
  285PVA    H4848360   6.843   4.569   7.615  0.3794 -2.1646  2.7878
  285PVA    C2548361   6.843   4.679   7.784 -0.2095  1.2782 -0.1140
  285PVA    H4948362   6.834   4.788   7.791 -2.0294  1.1389  0.1357
  285PVA    H5048363   6.923   4.641   7.850 -1.2072 -3.7981 -1.3829
  285PVA    C2648364   6.696   4.632   7.830  0.8979 -0.2983 -0.1225
  285PVA    H5148365   6.709   4.523   7.828  2.7354 -0.1605  1.4865
  285PVA     O948366   6.600   4.665   7.731 -1.3323 -0.8427  0.3466
  285PVA    H5248367   6.516   4.700   7.768 -1.5630  2.2157 -2.5610
  285PVA    C2748368   6.665   4.677   7.980  0.3857 -0.5271  1.1035
  285PVA    H5348369   6.692   4.780   8.004 -0.5993  0.8063 -2.7414
  285PVA    H5448370   6.746   4.624   8.031  1.2905 -0.8788 -0.6084
  285PVA    C2848371   6.523   4.659   8.049 -0.3349  1.1586 -0.0143
  285PVA    H5548372   6.440   4.702   7.991  1.2274  2.1404 -1.6097
  285PVA    H5648373   6.499   4.552   8.055 -0.9262  1.1727 -1.6265
  285PVA    C2948374   6.512   4.716   0.101  0.6543 -0.2379  0.1565
  285PVA    H5748375   6.600   4.683   0.158 -0.3034 -2.7203  0.2851
  285PVA    O1048376   6.512   4.849   0.096 -0.8935 -0.2504 -0.4247
  285PVA    H5848377   6.560   4.869   0.014  2.8761  1.0653  1.8347
  285PVA    C3048378   6.380   4.666   0.170  0.9682  0.2467  0.6379
  285PVA    H5948379   6.304   4.727   0.120  1.8373  5.2366  4.6341
  285PVA    H6048380   6.359   4.559   0.159  0.8662  0.0799  2.2150
  285PVA    C3148381   6.358   4.678   0.323  0.5998  0.2277  0.6767
  285PVA    H6148382   6.384   4.780   0.356 -2.6460  0.5040  2.7766
  285PVA    H6248383   6.433   4.607   0.360  0.7288 -0.7758 -1.3551
  285PVA    C3248384   6.210   4.640   0.379  0.7913  1.2148 -2.0765
  285PVA    H6348385   6.133   4.694   0.324  1.6821  1.7180 -2.8463
  285PVA    O1148386   6.203   4.499   0.360 -1.0850 -0.4046  0.0111
  285PVA    H6448387   6.221   4.457   0.446  1.8375  2.1992  0.8283
  285PVA    C3348388   6.180   4.669   0.528  0.2161  0.5334  0.6923
  285PVA    H6548389   6.169   4.775   0.551 -1.8423  0.8567 -1.4101
  285PVA    H6648390   6.279   4.641   0.567 -0.4604 -2.1372  0.7234
  285PVA    C3448391   6.063   4.587   0.598 -0.2462  0.1759 -0.5072
  285PVA    H6748392   5.980   4.659   0.592 -2.1721 -2.0131 -1.8215
  285PVA    H6848393   6.029   4.489   0.561 -3.9932  0.0120  2.7080
  285PVA    C3548394   6.088   4.564   0.755  1.0460 -1.5431  1.0612
  285PVA    H6948395   6.144   4.653   0.785 -2.3049  0.5548  1.6262
  285PVA    O1248396   6.176   4.463   0.796  0.6657 -0.6870  0.1717
  285PVA    H7048397   6.254   4.510   0.831  1.6360 -1.4189 -0.9380
  285PVA    C3648398   5.956   4.581   0.849  0.5709 -0.6175  0.0694
  285PVA    H7148399   5.931   4.685   0.828  1.8891 -0.7346 -2.5326
  285PVA    H7248400   5.874   4.523   0.804  3.5019 -4.5873 -0.7687
  285PVA    C3748401   5.970   4.555   1.010 -0.4791 -0.7925 -0.0844
  285PVA    H7348402   6.053   4.613   1.051  0.4395 -0.1341 -2.6411
  285PVA    H7448403   6.000   4.454   1.039  1.6395  0.7720  3.8790
  285PVA    C3848404   5.834   4.584   1.094  0.2906 -0.2148 -0.2693
  285PVA    H7548405   5.753   4.565   1.023 -0.8351  1.8732  0.3740
  285PVA    O1348406   5.817   4.717   1.124 -0.2436  0.5868 -1.0422
  285PVA    H7648407   5.902   4.765   1.122  0.6862 -0.7321  1.6132
  285PVA    C3948408   5.812   4.505   1.225 -1.6103  0.5148 -0.7350
  285PVA    H7748409   5.890   4.546   1.291  1.7592  0.2541 -4.1928
  285PVA    H7848410   5.839   4.399   1.228  2.0402  1.2443 -2.5596
  285PVA    C4048411   5.669   4.512   1.306  0.0946 -0.1099  0.3815
  285PVA    H7948412   5.675   4.619   1.328  0.4661 -0.6304  3.1198
  285PVA    H8048413   5.576   4.490   1.251  0.1293  0.6390  0.0113
  285PVA    C4148414   5.645   4.446   1.452 -0.8254  0.7884  1.0140
  285PVA    H8148415   5.742   4.430   1.500 -0.9768 -1.3341  0.7360
  285PVA    O1448416   5.590   4.320   1.423 -0.0871  0.0168  0.4826
  285PVA    H8248417   5.659   4.253   1.435  1.4015  0.7033 -2.9996
  285PVA    C4248418   5.538   4.504   1.537 -0.2843  0.4166  0.0432
  285PVA    H8348419   5.446   4.502   1.479 -1.5756  1.2221  1.9562
  285PVA    H8448420   5.563   4.610   1.556 -1.5666  0.3204  2.6516
  285PVA    C4348421   5.518   4.432   1.685  0.0290 -0.1504 -0.0784
  285PVA    H8548422   5.620   4.401   1.710  0.5336  2.6799  1.8906
  285PVA    H8648423   5.459   4.340   1.681 -4.8108  1.9192  6.2798
  285PVA    C4448424   5.467   4.517   1.811  1.1092  0.0671  0.3756
  285PVA    H8748425   5.384   4.568   1.763  2.2396  1.9374  0.3123
  285PVA    O1548426   5.566   4.606   1.855 -0.5901  0.8237 -0.2919
  285PVA    H8848427   5.523   4.656   1.927  3.1141  2.1438  1.2587
  285PVA    C4548428   5.416   4.438   1.939  0.0126  0.6372  0.0231
  285PVA    H8948429   5.493   4.379   1.990  1.9988 -0.8506 -4.2687
  285PVA    H9048430   5.343   4.360   1.911 -1.6519  1.2109  2.4160
  285PVA    C4648431   5.354   4.527   2.056 -0.3191 -0.5583  0.7893
  285PVA    H9148432   5.427   4.594   2.103 -0.1905  0.4170 -0.7308
  285PVA    H9248433   5.279   4.596   2.015 -0.9011  0.0038  2.6792
  285PVA    C4748434   5.285   4.443   2.177  0.2170 -0.1524  0.7846
  285PVA    H9348435   5.206   4.384   2.129  0.0387  3.3580 -4.0779
  285PVA    O1648436   5.384   4.367   2.241 -0.0437 -1.3809 -0.2762
  285PVA    H9448437   5.409   4.403   2.327  2.1436  1.3671 -1.8744
  285PVA    C4848438   5.220   4.524   2.310  1.3279  1.0174  1.0241
  285PVA    H9548439   5.300   4.579   2.361  2.0530  3.6929 -2.5771
  285PVA    H9648440   5.148   4.600   2.277  0.5345  0.6915  1.9722
  285PVA    C4948441   5.150   4.434   2.419 -0.0027  0.0691 -0.9328
  285PVA    H9748442   5.229   4.381   2.474  0.4173  2.2090  0.6089
  285PVA    H9848443   5.075   4.365   2.378 -1.2414  1.4060 -0.9817
  285PVA    C5048444   5.076   4.507   2.541 -1.0327  0.3023  0.3406
  285PVA    H9948445   4.997   4.572   2.501 -1.5449  0.2783  1.2726
  285PVA    O1748446   5.182   4.579   2.606 -0.5544  0.6281  0.4280
  285PVA   H10048447   5.226   4.513   2.663  0.2358  0.0472 -0.8244
  285PVA    C5148448   5.012   4.407   2.639  0.9027  0.2858  0.8273
  285PVA   H10148449   4.933   4.350   2.587  0.2601  2.5922 -0.8534
  285PVA   H10248450   5.093   4.346   2.680  1.6272  1.2193  0.7977
  286PVA     C148451   2.292   3.674   0.747 -0.9726  1.7265 -0.3048
  286PVA     H148452   2.323   3.570   0.760 -5.3061  0.3203  0.4072
  286PVA     H248453   2.201   3.656   0.806 -0.6261 -0.0926 -0.2560
  286PVA     C248454   2.369   3.794   0.826  0.1662  0.2629  0.1306
  286PVA     H348455   2.293   3.866   0.856  2.1017  0.4888  5.6374
  286PVA     O148456   2.461   3.873   0.735  0.3952  0.9020 -0.2911
  286PVA     H448457   2.546   3.893   0.779  1.0156 -2.5790  0.3321
  286PVA     C348458   2.453   3.751   0.953  0.7116 -0.3141  0.1238
  286PVA     H548459   2.500   3.662   0.909  1.4859 -0.3411  0.9577
  286PVA     H648460   2.383   3.705   1.023 -0.5066  0.9862 -0.2014
  286PVA     C448461   2.559   3.851   1.022  0.0322 -0.9285  0.2915
  286PVA     H748462   2.595   3.923   0.947  2.2265  0.5307  2.5911
  286PVA     H848463   2.509   3.920   1.091  1.5996  2.9516 -2.0922
  286PVA     C548464   2.685   3.787   1.097  0.5529 -0.4599 -0.0230
  286PVA     H948465   2.631   3.735   1.177 -4.8523  1.9182 -1.6350
  286PVA     O248466   2.720   3.689   1.008 -0.2205 -0.3186 -0.6023
  286PVA    H1048467   2.653   3.619   0.994  0.1849 -1.1566  1.3965
  286PVA     C648468   2.815   3.855   1.144  0.6333 -0.2709 -0.5351
  286PVA    H1148469   2.791   3.880   1.248  2.1788 -3.6787  0.8002
  286PVA    H1248470   2.820   3.957   1.104  0.3879  0.3309  0.9409
  286PVA     C748471   2.950   3.761   1.153 -0.1654  0.0743  0.2184
  286PVA    H1348472   2.917   3.671   1.206 -0.9967  0.5049  0.4434
  286PVA    H1448473   3.001   3.739   1.058  2.5360  2.7452  0.8856
  286PVA     C848474   3.072   3.819   1.225 -0.2359  0.3987 -0.7537
  286PVA    H1548475   3.019   3.875   1.303  1.6112 -1.8078  2.2841
  286PVA     O348476   3.152   3.902   1.151 -1.0119 -0.8439  0.5662
  286PVA    H1648477   3.143   3.993   1.185 -0.4630  0.2961 -2.0858
  286PVA     C948478   3.164   3.708   1.302 -0.0745  0.3795  0.8871
  286PVA    H1748479   3.240   3.657   1.241 -0.9295  0.1289 -0.0068
  286PVA    H1848480   3.095   3.633   1.344 -0.2668 -2.7571 -4.1749
  286PVA    C1048481   3.258   3.758   1.416 -0.1109 -0.2913 -0.3261
  286PVA    H1948482   3.325   3.834   1.374  0.3753 -1.0411 -0.9480
  286PVA    H2048483   3.202   3.827   1.480 -2.4726  0.6813 -3.1974
  286PVA    C1148484   3.341   3.654   1.503  0.5710  0.3887 -0.0237
  286PVA    H2148485   3.399   3.592   1.433 -0.1659  1.1975 -1.4035
  286PVA     O448486   3.246   3.576   1.582 -0.4284  0.7170  0.5814
  286PVA    H2248487   3.279   3.485   1.571  0.1997  0.8193  1.4692
  286PVA    C1248488   3.432   3.730   1.609 -0.7199 -0.7656 -0.1228
  286PVA    H2348489   3.525   3.764   1.562  1.8074 -2.5076  3.1659
  286PVA    H2448490   3.380   3.818   1.648 -2.5249 -1.2117 -1.3773
  286PVA    C1348491   3.499   3.653   1.734 -0.2414 -0.7451  0.0992
  286PVA    H2548492   3.595   3.608   1.705  1.2484  3.4593 -2.3694
  286PVA    H2648493   3.422   3.583   1.770  0.5794 -0.8934  1.6305
  286PVA    C1448494   3.530   3.746   1.862  0.2155  0.5127 -0.0427
  286PVA    H2748495   3.467   3.835   1.875  0.6893  0.7507  0.6576
  286PVA     O548496   3.656   3.800   1.821  0.4456  0.1773 -0.7224
  286PVA    H2848497   3.720   3.776   1.890  3.2041  1.9220 -2.4688
  286PVA    C1548498   3.556   3.668   2.000 -0.1092 -0.4734  0.0924
  286PVA    H2948499   3.659   3.691   2.031  0.0701 -2.7222  1.3837
  286PVA    H3048500   3.555   3.561   1.976 -2.1357 -0.9912  2.1108
  286PVA    C1648501   3.468   3.691   2.120 -1.3138 -1.2383 -0.0281
  286PVA    H3148502   3.482   3.800   2.124  1.0094 -1.5035  1.2979
  286PVA    H3248503   3.361   3.681   2.101 -1.0148 -1.9808 -1.4687
  286PVA    C1748504   3.516   3.631   2.253 -1.0398  0.7122 -0.4877
  286PVA    H3348505   3.564   3.698   2.325 -1.4114 -1.2604  1.6950
  286PVA     O648506   3.620   3.529   2.225  0.2510  0.2015  0.1468
  286PVA    H3448507   3.608   3.509   2.131 -0.8001  3.5251 -0.5559
  286PVA    C1848508   3.405   3.557   2.339  0.2260  0.1016 -0.9039
  286PVA    H3548509   3.450   3.485   2.408  1.4021  3.8520  2.6619
  286PVA    H3648510   3.341   3.503   2.267  1.0906 -1.1785 -0.7367
  286PVA    C1948511   3.315   3.636   2.441 -0.0346 -0.8598  0.5089
  286PVA    H3748512   3.247   3.706   2.390 -0.2263  0.7347  2.7923
  286PVA    H3848513   3.376   3.691   2.514 -0.3320 -0.0533  0.1636
  286PVA    C2048514   3.215   3.545   2.526  0.7939  0.4771 -0.2703
  286PVA    H3948515   3.277   3.473   2.582  0.3548 -0.7934 -1.3820
  286PVA     O748516   3.146   3.470   2.419  0.4095 -0.2854 -0.6781
  286PVA    H4048517   3.093   3.539   2.375  2.0547  2.7004  1.6562
  286PVA    C2148518   3.109   3.613   2.608 -0.1690  0.3345 -1.0209
  286PVA    H4148519   3.063   3.701   2.561 -2.1347  0.6560  1.2821
  286PVA    H4248520   3.161   3.656   2.695 -0.0327  0.5142 -1.1911
  286PVA    C2248521   2.995   3.532   2.682 -0.8321 -0.6251  0.4670
  286PVA    H4348522   2.922   3.491   2.611 -0.1577  1.7645 -1.7467
  286PVA    H4448523   3.060   3.451   2.717 -0.2112  0.4101  1.7552
  286PVA    C2348524   2.910   3.619   2.783  0.9856  0.1422 -0.6811
  286PVA    H4548525   2.972   3.696   2.831 -0.1552  1.9843 -2.0328
  286PVA     O848526   2.813   3.683   2.714  0.1923 -0.2044  0.3972
  286PVA    H4648527   2.751   3.719   2.780 -1.9871 -3.5386  0.4054
  286PVA    C2448528   2.873   3.550   2.924 -0.3825  0.0694  0.6149
  286PVA    H4748529   2.813   3.465   2.890 -0.6752  0.5858 -0.1726
  286PVA    H4848530   2.956   3.494   2.969  1.4106 -0.5442 -3.1309
  286PVA    C2548531   2.792   3.631   3.034 -0.6326  0.6616  0.0977
  286PVA    H4948532   2.687   3.601   3.028 -1.3143  2.9154 -0.1660
  286PVA    H5048533   2.808   3.737   3.011 -1.4085  0.4968 -1.2620
  286PVA    C2648534   2.829   3.592   3.182  0.1736  0.5336 -0.0222
  286PVA    H5148535   2.935   3.600   3.206 -0.3776  1.8398  2.3424
  286PVA     O948536   2.819   3.454   3.204 -0.2432  0.3180  0.3024
  286PVA    H5248537   2.751   3.406   3.152  0.2998  0.5151 -0.6073
  286PVA    C2748538   2.730   3.674   3.281 -1.4426  0.9297 -0.2265
  286PVA    H5348539   2.644   3.606   3.288  0.0859 -1.0336  0.8661
  286PVA    H5448540   2.717   3.773   3.236  1.5145  1.4145 -0.2079
  286PVA    C2848541   2.769   3.691   3.437 -0.3933  0.4331 -1.0095
  286PVA    H5548542   2.872   3.723   3.455 -0.5474 -0.9701  4.4163
  286PVA    H5648543   2.789   3.589   3.473  2.8281 -0.1209 -3.8845
  286PVA    C2948544   2.669   3.768   3.534 -0.0834  0.1671  0.4212
  286PVA    H5748545   2.580   3.704   3.546 -0.5179 -0.4488 -4.2841
  286PVA    O1048546   2.599   3.874   3.476 -0.0905 -0.3057 -0.5863
  286PVA    H5848547   2.635   3.959   3.509 -2.3351  0.4350  0.1509
  286PVA    C3048548   2.701   3.809   3.684  0.8197  1.0025  0.3138
  286PVA    H5948549   2.796   3.864   3.680 -0.1189  2.6184 -0.9524
  286PVA    H6048550   2.726   3.709   3.720  2.2358 -0.2821 -3.7179
  286PVA    C3148551   2.602   3.893   3.773  0.4310 -0.0281  0.2090
  286PVA    H6148552   2.499   3.861   3.754  0.8802  0.6647 -4.4203
  286PVA    H6248553   2.581   3.989   3.725 -0.1672  0.8472  2.1157
  286PVA    C3248554   2.646   3.909   3.916  0.5484  0.3400 -0.0277
  286PVA    H6348555   2.741   3.855   3.924 -1.2191 -2.7180  4.4688
  286PVA    O1148556   2.555   3.823   4.000  0.4823 -0.0417 -0.3437
  286PVA    H6448557   2.465   3.836   3.965  0.8157  0.2445 -1.1274
  286PVA    C3348558   2.678   4.051   3.986  0.4936 -0.2079  0.1579
  286PVA    H6548559   2.592   4.086   4.045  1.0974  1.5928  0.0266
  286PVA    H6648560   2.669   4.126   3.907 -3.1035 -1.6909 -1.0790
  286PVA    C3448561   2.819   4.077   4.060  1.1076 -0.7303  1.0351
  286PVA    H6748562   2.897   4.006   4.032  2.6496  1.9145 -1.9506
  286PVA    H6848563   2.791   4.058   4.165 -2.3943 -0.7055  0.2336
  286PVA    C3548564   2.854   4.238   4.069  0.3234  0.2694 -0.9971
  286PVA    H6948565   2.796   4.301   4.000 -2.1714 -2.1381 -1.2750
  286PVA    O1248566   2.821   4.285   4.197  0.9613  0.4753 -0.2583
  286PVA    H7048567   2.812   4.381   4.196 -2.2606  0.3012  0.4615
  286PVA    C3648568   3.012   4.262   4.046 -0.3649  1.1242 -0.4214
  286PVA    H7148569   3.075   4.266   4.136  1.1526  0.4008 -1.4231
  286PVA    H7248570   3.055   4.163   4.028 -2.1386  0.6328 -2.2529
  286PVA    C3748571   3.076   4.341   3.911  0.3824  0.9881  0.0763
  286PVA    H7348572   3.021   4.435   3.897 -3.5716 -1.1098  0.1218
  286PVA    H7448573   3.026   4.281   3.834  2.2410 -3.0566  1.7525
  286PVA    C3848574   3.226   4.363   3.896 -1.7571  0.3752  0.3013
  286PVA    H7548575   3.259   4.419   3.985  1.8887 -1.1123  0.0169
  286PVA    O1348576   3.274   4.227   3.899 -0.2672 -0.9368  0.3765
  286PVA    H7648577   3.342   4.218   3.968 -0.4140 -0.1579  0.6366
  286PVA    C3948578   3.285   4.440   3.764 -0.9822  0.0529  0.3730
  286PVA    H7748579   3.239   4.538   3.743  1.4854  0.5359 -3.7930
  286PVA    H7848580   3.240   4.392   3.677  1.5381 -0.1520 -0.9068
  286PVA    C4048581   3.443   4.460   3.724  0.6277 -0.3212 -0.6662
  286PVA    H7948582   3.492   4.515   3.805 -1.7652  1.3229 -0.2001
  286PVA    H8048583   3.491   4.363   3.738  0.8565 -0.3573 -1.6430
  286PVA    C4148584   3.482   4.516   3.580 -0.1432  0.3750  0.4688
  286PVA    H8148585   3.432   4.613   3.571 -1.1612 -0.2709 -1.4496
  286PVA    O1448586   3.433   4.436   3.469 -0.0725 -0.1427 -0.4178
  286PVA    H8248587   3.389   4.356   3.503  0.8309  0.1867  1.6684
  286PVA    C4248588   3.632   4.537   3.548  0.2635  0.3715  0.6998
  286PVA    H8348589   3.675   4.607   3.621  3.4958  0.6883 -1.3260
  286PVA    H8448590   3.679   4.441   3.573 -2.9348 -1.6125 -0.2910
  286PVA    C4348591   3.663   4.578   3.402  0.1974 -0.6832  0.0599
  286PVA    H8548592   3.621   4.510   3.326 -0.8513  1.4073 -1.3239
  286PVA    H8648593   3.605   4.665   3.370 -1.4879 -0.7457  2.6395
  286PVA    C4448594   3.801   4.635   3.367  0.2775 -0.7556  0.3985
  286PVA    H8748595   3.873   4.614   3.447  3.0402 -0.4727 -1.8316
  286PVA    O1548596   3.805   4.773   3.358  0.2768 -0.2972  0.3144
  286PVA    H8848597   3.784   4.812   3.444  0.7938 -1.1223  0.8342
  286PVA    C4548598   3.870   4.580   3.234 -0.2332 -0.8485 -0.8343
  286PVA    H8948599   3.799   4.573   3.150 -0.8452  0.9550 -0.5148
  286PVA    H9048600   3.914   4.481   3.250  2.5796  0.3077 -0.8821
  286PVA    C4648601   3.986   4.662   3.159  0.5570  1.1645  0.3983
  286PVA    H9148602   4.048   4.720   3.229  1.8320 -0.0019  0.2967
  286PVA    H9248603   3.930   4.737   3.103  3.6866  2.0563 -1.8651
  286PVA    C4748604   4.093   4.579   3.078 -0.3218  0.4744  0.8260
  286PVA    H9348605   4.125   4.493   3.139  1.7566 -0.6664 -1.6927
  286PVA    O1648606   4.020   4.530   2.955  0.5108 -0.6499 -0.0182
  286PVA    H9448607   3.970   4.599   2.909  2.2814 -1.4442 -3.4392
  286PVA    C4848608   4.213   4.671   3.040 -0.6111  0.6303  1.9079
  286PVA    H9548609   4.179   4.774   3.026 -2.0082  0.0863  1.0303
  286PVA    H9648610   4.279   4.680   3.127 -0.2689 -2.7758  2.1367
  286PVA    C4948611   4.307   4.616   2.924 -0.4677  0.0982 -0.0745
  286PVA    H9748612   4.266   4.649   2.828 -0.8988 -1.6910 -0.5391
  286PVA    H9848613   4.293   4.508   2.909 -3.4529  0.7154 -2.7198
  286PVA    C5048614   4.462   4.651   2.946 -0.1145  0.4240 -0.4974
  286PVA    H9948615   4.501   4.606   3.039 -0.2283 -2.1521 -1.6063
  286PVA    O1748616   4.489   4.792   2.973  0.3484  0.3785 -0.2378
  286PVA   H10048617   4.481   4.828   2.884 -2.0170 -1.6214 -0.9524
  286PVA    C5148618   4.570   4.581   2.845  0.9074 -0.2746 -0.2353
  286PVA   H10148619   4.526   4.518   2.767 -1.3174 -1.2040  1.6286
  286PVA   H10248620   4.625   4.664   2.800  1.0853 -0.3120 -0.0901
  287PVA     C148621   2.462   3.633   0.235 -0.1115 -0.1746  1.1449
  287PVA     H148622   2.424   3.542   0.187  0.7368 -1.4387  2.7733
  287PVA     H248623   2.479   3.715   0.165 -0.4908 -0.5455  0.6117
  287PVA     C248624   2.616   3.634   0.294  0.4316 -0.1810 -0.4465
  287PVA     H348625   2.630   3.726   0.352  5.4942 -0.7309 -0.3002
  287PVA     O148626   2.640   3.534   0.387  0.5043 -0.0190 -0.2314
  287PVA     H448627   2.556   3.486   0.390  1.1293 -1.2169 -1.2608
  287PVA     C348628   2.744   3.624   0.188  0.5000  0.7995  0.6964
  287PVA     H548629   2.761   3.720   0.138  1.7297 -0.1626 -0.8352
  287PVA     H648630   2.737   3.562   0.098  2.3697  1.3197  0.1555
  287PVA     C448631   2.888   3.590   0.255 -0.2655 -0.7345  0.0639
  287PVA     H748632   2.890   3.660   0.339 -2.4941  1.6450 -1.6898
  287PVA     H848633   2.891   3.482   0.275 -7.0016 -1.5743 -1.0335
  287PVA     C548634   3.005   3.607   0.155  0.6728  0.1664  0.4690
  287PVA     H948635   3.019   3.706   0.109  3.5878 -0.9449 -1.3218
  287PVA     O248636   2.986   3.507   0.057  0.0996  0.1750  0.0248
  287PVA    H1048637   2.901   3.518   0.011  1.4880 -0.6946 -2.9596
  287PVA     C648638   3.132   3.565   0.235 -0.0632  1.2828  1.2070
  287PVA    H1148639   3.103   3.630   0.319 -4.3851 -0.1233  1.0758
  287PVA    H1248640   3.138   3.465   0.279 -2.3360  0.3105 -0.4697
  287PVA     C748641   3.280   3.602   0.199  1.2326  0.3151  0.9331
  287PVA    H1348642   3.306   3.706   0.222  0.2799  1.3894 -2.2835
  287PVA    H1448643   3.269   3.615   0.090 -3.5133  1.0093  1.2801
  287PVA     C848644   3.401   3.516   0.215 -1.2066 -0.0583 -1.6444
  287PVA    H1548645   3.364   3.420   0.180 -1.8313  0.5231 -2.6134
  287PVA     O348646   3.438   3.515   0.356  0.0201 -0.2699 -0.8304
  287PVA    H1648647   3.355   3.488   0.400 -0.5788  0.1611 -1.6609
  287PVA     C948648   3.529   3.551   0.126  0.0387  0.1554 -0.3327
  287PVA    H1748649   3.544   3.658   0.144  1.1868  1.5068 -6.8601
  287PVA    H1848650   3.487   3.550   0.025 -0.1769  0.0159 -0.2415
  287PVA    C1048651   3.670   3.469   0.155  0.4660  0.1208  0.3005
  287PVA    H1948652   3.704   3.511   0.250 -0.0011 -0.9928  0.9753
  287PVA    H2048653   3.635   3.366   0.168 -1.4434  0.3936 -2.0065
  287PVA    C1148654   3.785   3.473   0.050  0.4133 -0.0893 -0.2932
  287PVA    H2148655   3.735   3.510   8.057 -0.0674 -1.6578 -0.7026
  287PVA     O448656   3.858   3.584   0.088 -0.6336  1.2925 -0.1723
  287PVA    H2248657   3.902   3.583   0.175  2.1287  0.2396 -1.4809
  287PVA    C1248658   3.867   3.346   0.027  0.8944  0.7333 -0.7167
  287PVA    H2348659   3.936   3.332   0.110 -0.3201 -1.7064 -0.0248
  287PVA    H2448660   3.803   3.266   0.067 -0.6964  3.3685  2.4816
  287PVA    C1348661   3.929   3.337   7.985  0.2966 -1.3124  0.0122
  287PVA    H2548662   3.948   3.444   7.971 -3.0031 -0.5604  0.4695
  287PVA    H2648663   3.854   3.332   7.905  1.5302 -0.2228 -1.2809
  287PVA    C1448664   4.040   3.230   7.957 -0.0652 -0.0394  0.9419
  287PVA    H2748665   4.067   3.171   8.045  3.9563  0.5993  0.3486
  287PVA     O548666   4.160   3.297   7.916  0.6302 -0.3383 -0.0809
  287PVA    H2848667   4.155   3.311   7.820  0.3669  1.1189  0.1222
  287PVA    C1548668   3.996   3.127   7.846  0.4639  0.6741  0.1328
  287PVA    H2948669   3.952   3.190   7.768  1.3908  1.1762  0.0033
  287PVA    H3048670   3.929   3.048   7.882 -3.3734  1.6287 -3.9921
  287PVA    C1648671   4.113   3.043   7.767  0.4078  1.1249 -0.0184
  287PVA    H3148672   4.184   3.113   7.720 -1.5932  2.7114 -0.8788
  287PVA    H3248673   4.181   2.987   7.832  0.2315  0.1025 -0.6918
  287PVA    C1748674   4.050   2.937   7.659 -0.0209  0.0939 -1.2506
  287PVA    H3348675   3.961   2.991   7.623 -2.2759 -3.7234 -1.9411
  287PVA     O648676   4.001   2.832   7.745 -0.3563  0.2253  0.4318
  287PVA    H3448677   3.958   2.778   7.675  4.3240 -4.0050  0.2311
  287PVA    C1848678   4.120   2.887   7.529  0.4184  0.5791 -1.0757
  287PVA    H3548679   4.165   2.977   7.486  1.2268  0.2910 -0.8598
  287PVA    H3648680   4.212   2.837   7.565 -0.5717 -1.1904 -0.8721
  287PVA    C1948681   4.050   2.782   7.426 -0.2190 -0.2501 -0.1671
  287PVA    H3748682   4.004   2.698   7.479  1.1194 -1.1208 -0.3450
  287PVA    H3848683   4.139   2.738   7.381  0.3566  2.2510 -1.6753
  287PVA    C2048684   3.965   2.838   7.301  0.4727 -0.1788 -0.4072
  287PVA    H3948685   3.891   2.914   7.328  0.2441 -0.4064 -0.3916
  287PVA     O748686   4.045   2.900   7.203 -0.5599 -0.1461 -1.0109
  287PVA    H4048687   3.982   2.949   7.148  0.7078  0.6149 -1.8157
  287PVA    C2148688   3.883   2.733   7.234  0.2098 -0.1601  1.0619
  287PVA    H4148689   3.844   2.665   7.311  3.8060  0.2907  3.5495
  287PVA    H4248690   3.934   2.669   7.161 -1.0848  4.3435 -4.4873
  287PVA    C2248691   3.761   2.796   7.148 -0.2315 -1.0132  0.1765
  287PVA    H4348692   3.800   2.892   7.112  2.6157 -0.3132  4.2924
  287PVA    H4448693   3.687   2.840   7.215 -0.0915  0.8083 -0.8094
  287PVA    C2348694   3.680   2.712   7.049  0.2604 -0.3560  0.7750
  287PVA    H4548695   3.707   2.611   7.080 -2.0227 -1.6477 -1.1251
  287PVA     O848696   3.745   2.725   6.925 -0.1780 -0.2223 -0.4154
  287PVA    H4648697   3.694   2.778   6.861  1.9499  2.2194 -0.2757
  287PVA    C2448698   3.520   2.743   7.049  0.8697  0.9073  0.0715
  287PVA    H4748699   3.506   2.850   7.064 -0.8523  0.8489 -0.9244
  287PVA    H4848700   3.494   2.701   7.146  3.5258  0.5977  0.7441
  287PVA    C2548701   3.397   2.686   6.959 -0.9186 -0.6745  0.1511
  287PVA    H4948702   3.415   2.580   6.935  0.0718 -0.8010  1.3737
  287PVA    H5048703   3.414   2.748   6.870  1.0059  2.9406  2.7536
  287PVA    C2648704   3.256   2.737   7.004  0.8175  0.5174  1.2344
  287PVA    H5148705   3.251   2.720   7.112 -3.5992 -0.6334  1.0509
  287PVA     O948706   3.244   2.875   6.961  0.4830 -0.6791  0.0664
  287PVA    H5248707   3.331   2.915   6.944 -0.1515 -0.5273 -3.8303
  287PVA    C2748708   3.109   2.673   6.953 -0.5409  0.1230  0.1602
  287PVA    H5348709   3.088   2.579   7.005  3.3493 -0.9071  0.1346
  287PVA    H5448710   3.119   2.631   6.852 -0.0178  0.5867  0.0127
  287PVA    C2848711   2.968   2.758   6.972 -0.9998 -0.2827  0.4382
  287PVA    H5548712   2.959   2.760   7.082 -1.6161 -0.6571  0.3967
  287PVA    H5648713   2.993   2.847   6.913  0.3958 -0.8819  0.0757
  287PVA    C2948714   2.835   2.697   6.915  0.4239 -1.2477 -0.2262
  287PVA    H5748715   2.867   2.615   6.851  0.7245 -2.3542  1.2872
  287PVA    O1048716   2.773   2.620   7.003 -0.5539 -0.7971  0.0976
  287PVA    H5848717   2.698   2.673   7.032  1.6579  2.3122  0.6511
  287PVA    C3048718   2.721   2.773   6.831 -0.2253 -1.1550  0.6911
  287PVA    H5948719   2.677   2.848   6.898 -1.1061 -2.9089  2.1506
  287PVA    H6048720   2.771   2.822   6.747 -4.0503 -0.5010 -1.4736
  287PVA    C3148721   2.595   2.701   6.763 -0.8204 -0.0999 -0.1858
  287PVA    H6148722   2.631   2.669   6.665  1.6502  2.6046 -0.3041
  287PVA    H6248723   2.611   2.614   6.828  3.4877  0.2665 -0.4886
  287PVA    C3248724   2.450   2.747   6.752 -0.3019  0.2143 -0.4984
  287PVA    H6348725   2.400   2.650   6.745  0.6068 -0.3270  0.3639
  287PVA    O1148726   2.406   2.838   6.849  0.6506  0.5223 -0.3567
  287PVA    H6448727   2.450   2.921   6.826 -0.2357  1.6532  1.7138
  287PVA    C3348728   2.403   2.797   6.606  1.3186 -0.5779 -0.3797
  287PVA    H6548729   2.434   2.725   6.529  1.1263  0.2469 -1.2384
  287PVA    H6648730   2.433   2.900   6.584 -1.7615 -0.0079 -2.6321
  287PVA    C3448731   2.246   2.855   6.595 -0.9120 -0.3568  0.5955
  287PVA    H6748732   2.189   2.779   6.650 -3.1728  0.5722 -0.3394
  287PVA    H6848733   2.241   2.945   6.657  1.6303  1.1894 -1.2317
  287PVA    C3548734   2.195   2.902   6.448 -0.9856  0.5964 -0.6703
  287PVA    H6948735   2.282   2.867   6.392  1.0863  0.9874  2.0810
  287PVA    O1248736   2.200   3.042   6.432  0.2831 -0.5508  0.4108
  287PVA    H7048737   2.168   3.082   6.514 -0.7720  3.2085 -1.6143
  287PVA    C3648738   2.071   2.848   6.362  0.0320  0.2077 -0.2722
  287PVA    H7148739   2.089   2.742   6.337  2.5510  0.1059  1.5230
  287PVA    H7248740   1.984   2.856   6.428 -1.2655 -7.2789 -0.1935
  287PVA    C3748741   1.999   2.915   6.238  0.0163 -0.0033 -0.7751
  287PVA    H7348742   2.055   3.003   6.205  1.6308  1.4705  4.7942
  287PVA    H7448743   1.919   2.988   6.259 -1.2999 -0.9924 -2.1982
  287PVA    C3848744   1.947   2.827   6.119  0.6796 -0.5637 -0.1963
  287PVA    H7548745   2.033   2.759   6.109  1.7515  0.1116  3.1818
  287PVA    O1348746   1.847   2.738   6.155  0.9543  0.3509 -1.5546
  287PVA    H7648747   1.848   2.665   6.090  5.5516 -3.9955  2.4424
  287PVA    C3948748   1.901   2.884   5.975  0.7620 -0.2706  0.4618
  287PVA    H7748749   1.990   2.891   5.911 -0.4821  1.1296 -1.2099
  287PVA    H7848750   1.871   2.989   5.982 -1.4292 -0.9287  2.0295
  287PVA    C4048751   1.791   2.808   5.891 -1.2353  0.6103  0.4807
  287PVA    H7948752   1.817   2.705   5.921 -0.4479  0.2720 -1.2753
  287PVA    H8048753   1.692   2.827   5.934 -0.9188  0.1429  1.4791
  287PVA    C4148754   1.786   2.822   5.736  0.3905  0.7079 -0.6684
  287PVA    H8148755   1.886   2.817   5.691  1.9063 -0.5170  2.5162
  287PVA    O1448756   1.726   2.939   5.706 -1.3059  0.7190  0.3179
  287PVA    H8248757   1.717   2.996   5.784  0.6552  0.8344  0.5163
  287PVA    C4248758   1.721   2.701   5.666  0.5909  1.2248  0.2357
  287PVA    H8348759   1.790   2.625   5.704 -1.6614  0.3099  2.8674
  287PVA    H8448760   1.622   2.683   5.710  1.7467 -2.2802  1.7725
  287PVA    C4348761   1.693   2.669   5.515 -1.1564  0.1072  0.5897
  287PVA    H8548762   1.755   2.728   5.446 -3.5956  0.8089 -1.1552
  287PVA    H8648763   1.604   2.732   5.505 -1.0448  1.3465  5.1902
  287PVA    C4448764   1.685   2.529   5.462 -0.0813 -1.2490 -0.3703
  287PVA    H8748765   1.754   2.471   5.526  2.6280  0.9460 -1.1433
  287PVA    O1548766   1.550   2.485   5.490 -0.6118 -0.1426 -1.4884
  287PVA    H8848767   1.556   2.388   5.487  0.3083 -0.1813  0.4758
  287PVA    C4548768   1.730   2.487   5.314 -0.3060 -0.0215 -0.1351
  287PVA    H8948769   1.834   2.520   5.308 -1.0663  2.4866 -0.3950
  287PVA    H9048770   1.678   2.559   5.250 -0.9690  0.3892  0.8442
  287PVA    C4648771   1.721   2.327   5.277 -0.6253  0.4614 -0.0433
  287PVA    H9148772   1.615   2.298   5.268 -0.4959  0.0035 -0.1191
  287PVA    H9248773   1.769   2.270   5.357 -2.4033 -2.4342 -0.8816
  287PVA    C4748774   1.808   2.299   5.154  0.3505  0.2214  0.6495
  287PVA    H9348775   1.895   2.363   5.172  0.5773 -0.5878  2.7387
  287PVA    O1648776   1.727   2.365   5.058 -0.1680  0.0972 -0.6102
  287PVA    H9448777   1.787   2.432   5.020  0.9120  0.6610  1.9128
  287PVA    C4848778   1.831   2.155   5.090 -0.5086  0.0051 -1.7226
  287PVA    H9548779   1.899   2.095   5.151 -5.0179 -0.9352  3.1305
  287PVA    H9648780   1.732   2.112   5.113  0.1894 -0.3303  1.0125
  287PVA    C4948781   1.850   2.131   4.926  0.6631 -0.4796  0.6181
  287PVA    H9748782   1.909   2.224   4.926  0.5625 -0.2461  4.4313
  287PVA    H9848783   1.753   2.148   4.878  1.9032  3.0886 -1.0332
  287PVA    C5048784   1.913   2.012   4.841 -0.3576 -0.1719  0.5133
  287PVA    H9948785   2.003   1.989   4.899  0.0113  0.3957  0.1774
  287PVA    O1748786   1.828   1.901   4.850  0.0042  0.0389 -0.5448
  287PVA   H10048787   1.759   1.930   4.788 -1.0913  3.0601  1.8332
  287PVA    C5148788   1.968   2.062   4.690  0.5323  1.0998  0.3266
  287PVA   H10148789   1.880   2.070   4.625  1.5453 -0.1158 -1.2633
  287PVA   H10248790   2.003   2.165   4.686  0.1705  1.2554  0.9594
  288PVA     C148791   5.200   4.744   3.627 -1.0227 -0.4164 -0.3228
  288PVA     H148792   5.199   4.817   3.709  1.3571 -0.0370 -0.5497
  288PVA     H248793   5.211   4.645   3.673 -4.0730 -0.4147  0.5712
  288PVA     C248794   5.332   4.760   3.553 -0.5555 -0.0951 -1.1480
  288PVA     H348795   5.404   4.738   3.633 -1.2598 -0.3763 -0.5802
  288PVA     O148796   5.360   4.888   3.499 -0.9475 -0.8307 -0.1816
  288PVA     H448797   5.287   4.907   3.437  2.2257  3.5503 -3.1025
  288PVA     C348798   5.347   4.663   3.432  1.0614 -0.0021  0.4944
  288PVA     H548799   5.297   4.691   3.338 -0.9389  6.2683  2.9014
  288PVA     H648800   5.306   4.564   3.456 -1.5626  0.8696 -0.0592
  288PVA     C448801   5.497   4.641   3.396 -0.8690 -0.0874  0.0898
  288PVA     H748802   5.535   4.711   3.321 -2.2104 -0.7030 -1.2005
  288PVA     H848803   5.568   4.648   3.480 -0.2623  1.2267 -0.5170
  288PVA     C548804   5.527   4.493   3.349 -0.0538 -0.3748 -0.0360
  288PVA     H948805   5.492   4.426   3.429 -1.6576  0.4897  0.0149
  288PVA     O248806   5.476   4.469   3.228 -0.1566 -1.7030  0.4607
  288PVA    H1048807   5.517   4.381   3.219  2.8026 -0.4515  0.5815
  288PVA     C648808   5.677   4.455   3.355  0.1885 -0.6295  0.6033
  288PVA    H1148809   5.707   4.501   3.261 -1.4318 -1.3692 -0.3255
  288PVA    H1248810   5.718   4.503   3.445  1.7571  1.1585 -0.9919
  288PVA     C748811   5.733   4.303   3.362  1.1006  0.2308  1.3963
  288PVA    H1348812   5.679   4.272   3.453  4.1660 -2.5881  2.4398
  288PVA    H1448813   5.840   4.316   3.382  2.2913 -0.0717 -3.6362
  288PVA     C848814   5.719   4.203   3.238 -0.6395  1.3796  0.3011
  288PVA    H1548815   5.707   4.106   3.286  1.2954  0.0742 -1.6602
  288PVA     O348816   5.606   4.221   3.154  0.8185 -0.9705 -0.0846
  288PVA    H1648817   5.624   4.236   3.060 -2.1210  2.5320 -0.2709
  288PVA     C948818   5.853   4.203   3.150 -0.7824  1.0092  0.2470
  288PVA    H1748819   5.845   4.280   3.072 -2.1561  0.6641  0.0203
  288PVA    H1848820   5.946   4.227   3.204  0.9549 -3.0823 -0.5588
  288PVA    C1048821   5.876   4.066   3.073 -0.2440  0.1635  0.5676
  288PVA    H1948822   5.825   4.067   2.976  1.7163 -1.5245 -0.5660
  288PVA    H2048823   5.848   3.984   3.141  1.0771 -2.1751 -1.5435
  288PVA    C1148824   6.024   4.012   3.054  0.3510 -0.2289  0.1662
  288PVA    H2148825   6.052   4.077   2.970 -2.6222 -0.0395 -0.8011
  288PVA     O448826   6.111   4.048   3.157 -1.1012  0.5965  1.5306
  288PVA    H2248827   6.131   3.965   3.202  0.4493  0.4313  0.5741
  288PVA    C1248828   6.027   3.861   3.019  0.1783  0.1768 -0.5018
  288PVA    H2348829   5.966   3.807   3.093 -2.6623  2.8637 -0.6685
  288PVA    H2448830   5.964   3.841   2.931 -0.9653  1.7386 -0.0933
  288PVA    C1348831   6.163   3.781   3.012  0.3522  0.1478 -0.6642
  288PVA    H2548832   6.239   3.802   3.089  0.9364 -1.6668 -0.7008
  288PVA    H2648833   6.193   3.800   2.908 -1.6044 -0.1509 -1.3176
  288PVA    C1448834   6.143   3.625   3.017  1.3737  0.3279  0.1795
  288PVA    H2748835   6.076   3.601   3.100  1.3814 -0.6156 -0.0791
  288PVA     O548836   6.066   3.580   2.907 -0.5055  0.3543 -0.0408
  288PVA    H2848837   6.078   3.632   2.826  0.5599 -0.0606 -0.1693
  288PVA    C1548838   6.278   3.547   3.030  0.7150  0.4266  0.3617
  288PVA    H2948839   6.294   3.539   3.139 -2.1623  0.7200  0.8893
  288PVA    H3048840   6.347   3.615   2.980 -1.7266 -0.2754 -4.4710
  288PVA    C1648841   6.287   3.391   2.973  0.2257  0.8933 -0.0236
  288PVA    H3148842   6.199   3.336   3.008 -1.2614  3.5614  0.7112
  288PVA    H3248843   6.287   3.396   2.863  1.6099  0.0233 -0.0800
  288PVA    C1748844   6.429   3.324   3.002 -0.6906 -0.0449  0.2591
  288PVA    H3348845   6.415   3.305   3.109 -3.5101  1.5687  0.2619
  288PVA     O648846   6.542   3.408   2.973  0.0510  0.3863  0.2018
  288PVA    H3448847   6.541   3.438   2.880 -1.5896  0.0744  0.0745
  288PVA    C1848848   6.451   3.180   2.959  0.2336 -1.1110  0.6427
  288PVA    H3548849   6.359   3.121   2.971 -0.0133 -1.4696 -2.2499
  288PVA    H3648850   6.460   3.169   2.850  0.5993 -2.1482  0.7678
  288PVA    C1948851   6.579   3.124   3.022 -0.1291 -0.5328  0.5061
  288PVA    H3748852   6.582   3.148   3.129  0.4750 -4.6140  1.5862
  288PVA    H3848853   6.668   3.169   2.976 -1.7086  2.3117 -0.0453
  288PVA    C2048854   6.599   2.974   3.010 -0.1903 -0.0902  0.2032
  288PVA    H3948855   6.599   2.955   2.902  2.7567  0.0927  0.0730
  288PVA     O748856   6.500   2.916   3.090 -0.3290  0.4213 -0.6774
  288PVA    H4048857   6.514   2.820   3.090 -0.5701  0.3099  2.3311
  288PVA    C2148858   6.737   2.928   3.082  1.1814 -0.5540 -0.2230
  288PVA    H4148859   6.723   2.949   3.189  0.7777 -0.3401 -0.3167
  288PVA    H4248860   6.824   2.992   3.064 -0.8640  2.7192  0.7873
  288PVA    C2248861   6.756   2.772   3.056 -0.2358  0.6006 -0.5357
  288PVA    H4348862   6.691   2.707   3.117  1.3351  1.0144  1.7306
  288PVA    H4448863   6.724   2.748   2.954 -0.1422  2.6921 -1.1070
  288PVA    C2348864   6.901   2.726   3.078  1.0887 -1.0004 -0.6877
  288PVA    H4548865   6.962   2.816   3.061  0.9589 -0.3608  1.8740
  288PVA     O848866   6.912   2.673   3.213 -0.6298  0.3977  0.0249
  288PVA    H4648867   7.003   2.642   3.225  0.5178  2.8372 -1.5330
  288PVA    C2448868   6.950   2.637   2.961 -0.0734  0.8983 -1.1704
  288PVA    H4748869   6.894   2.544   2.949  1.1360  0.0042 -0.1446
  288PVA    H4848870   6.936   2.691   2.867  3.0981 -4.3008 -5.1411
  288PVA    C2548871   7.104   2.584   2.969  0.3044 -0.3204 -1.0785
  288PVA    H4948872   7.125   2.539   3.067  2.8526 -2.8837 -2.6570
  288PVA    H5048873   7.170   2.668   2.945  0.4919 -0.4961 -1.1777
  288PVA    C2648874   7.131   2.459   2.885  0.0738  1.1529 -0.2727
  288PVA    H5148875   7.103   2.478   2.781 -0.5613  4.2903  0.3756
  288PVA     O948876   7.045   2.355   2.919  0.5600  0.7072 -0.0016
  288PVA    H5248877   7.100   2.281   2.949  2.0314  0.6102 -2.6823
  288PVA    C2748878   7.283   2.405   2.898  0.4443 -0.8124  1.0351
  288PVA    H5348879   7.319   2.413   3.001 -1.3819  0.3878  1.6189
  288PVA    H5448880   7.351   2.465   2.837 -1.4432  2.5034  1.9621
  288PVA    C2848881   7.306   2.248   2.893  0.4151  0.2468  1.0441
  288PVA    H5548882   7.269   2.217   2.991 -1.3077 -2.3269 -0.3056
  288PVA    H5648883   7.255   2.190   2.815  2.0141  0.4888 -0.2216
  288PVA    C2948884   7.454   2.205   2.890  0.6524 -0.1677  1.4628
  288PVA    H5748885   7.499   2.256   2.976  3.8785 -2.4127  1.2441
  288PVA    O1048886   7.508   2.266   2.770  0.0053 -0.3998  0.1111
  288PVA    H5848887   7.593   2.223   2.747  0.8706  0.9193  0.7122
  288PVA    C3048888   7.479   2.046   2.885  0.9508  0.2192 -0.4273
  288PVA    H5948889   7.443   1.999   2.977  1.4861 -0.3077 -0.4760
  288PVA    H6048890   7.426   1.995   2.804  2.5065  0.0497 -1.3760
  288PVA    C3148891   7.624   1.985   2.880 -0.4416  0.3008  1.6950
  288PVA    H6148892   7.672   2.060   2.944  1.0278 -1.6211  2.9898
  288PVA    H6248893   7.666   1.988   2.779  0.8173  0.0315  2.1908
  288PVA    C3248894   7.674   1.864   2.968 -0.9503  0.2937  0.7492
  288PVA    H6348895   7.647   1.759   2.954  4.0029 -1.1780  0.1933
  288PVA    O1148896   7.647   1.890   3.105 -0.4645 -0.7805 -0.4649
  288PVA    H6448897   7.555   1.857   3.101 -0.1416 -2.3460  2.5602
  288PVA    C3348898   0.059   1.858   2.958  0.0526  0.0647  0.4714
  288PVA    H6548899   0.088   1.822   2.859 -1.6759  1.6919 -0.7046
  288PVA    H6648900   0.092   1.962   2.972 -2.7303  1.1268 -0.0989
  288PVA    C3448901   0.132   1.763   3.064 -0.2903  0.4688  1.5361
  288PVA    H6748902   0.111   1.658   3.041 -2.2897  1.2608 -0.6053
  288PVA    H6848903   0.098   1.787   3.166 -2.3139  1.3325  0.7093
  288PVA    C3548904   0.285   1.799   3.069  0.3628  0.4253  0.9199
  288PVA    H6948905   0.296   1.908   3.066  0.8798  0.3627 -0.8485
  288PVA    O1248906   0.356   1.756   2.948 -0.5345  0.5373  0.5183
  288PVA    H7048907   0.340   1.661   2.960 -0.0207  0.2893 -0.6672
  288PVA    C3648908   0.357   1.735   3.184 -0.0428  0.4857 -0.0709
  288PVA    H7148909   0.320   1.772   3.281 -0.7138 -2.7259  1.0124
  288PVA    H7248910   0.334   1.628   3.196 -4.0035  0.6016 -3.9087
  288PVA    C3748911   0.514   1.761   3.191 -1.0229 -0.0942  0.2179
  288PVA    H7348912   0.557   1.756   3.090 -1.7270  1.3949 -0.1737
  288PVA    H7448913   0.532   1.865   3.218  0.1562 -0.0992 -0.4764
  288PVA    C3848914   0.595   1.673   3.295 -1.2963  0.1169  0.2542
  288PVA    H7548915   0.626   1.587   3.235  0.3394  0.6902  0.2219
  288PVA    O1348916   0.509   1.626   3.403  0.9331  0.6836 -0.2325
  288PVA    H7648917   0.540   1.534   3.414 -0.4797 -0.0215 -1.7561
  288PVA    C3948918   0.725   1.736   3.368  0.7092 -0.3502 -0.0437
  288PVA    H7748919   0.687   1.782   3.460 -0.3933 -3.0496  0.9457
  288PVA    H7848920   0.771   1.817   3.309  3.5658 -0.8904  1.3014
  288PVA    C4048921   0.837   1.635   3.409 -0.7124 -0.7166 -0.2224
  288PVA    H7948922   0.792   1.548   3.458 -0.2959  1.3148  4.2927
  288PVA    H8048923   0.891   1.602   3.319 -0.6563 -1.5191  0.0995
  288PVA    C4148924   0.937   1.702   3.501 -0.3619 -0.7572  0.3653
  288PVA    H8148925   0.998   1.775   3.447 -0.3079  1.0364  2.6843
  288PVA    O1448926   0.870   1.780   3.594 -0.1320  0.3433 -0.3535
  288PVA    H8248927   0.887   1.737   3.679 -1.0682  1.1391  0.2580
  288PVA    C4248928   1.032   1.612   3.575 -1.8005  0.5195 -1.0661
  288PVA    H8348929   0.976   1.537   3.632 -1.0646 -0.4557 -1.5972
  288PVA    H8448930   1.087   1.545   3.507 -0.6895  1.0719 -0.7426
  288PVA    C4348931   1.142   1.694   3.659 -0.1590  1.3447 -1.0336
  288PVA    H8548932   1.084   1.763   3.721 -1.4224  0.9707 -1.7699
  288PVA    H8648933   1.210   1.741   3.586  2.2736 -2.0921 -1.2676
  288PVA    C4448934   1.245   1.609   3.745 -0.4049  0.2921 -0.0118
  288PVA    H8748935   1.315   1.557   3.677  0.7790  1.9914 -0.1649
  288PVA    O1548936   1.163   1.519   3.816  0.0598 -0.3228  0.3014
  288PVA    H8848937   1.215   1.443   3.845 -0.4513 -0.6391  0.3900
  288PVA    C4548938   1.321   1.704   3.850  0.0429 -0.2693 -0.1843
  288PVA    H8948939   1.265   1.796   3.872 -2.0643 -0.3903 -4.1365
  288PVA    H9048940   1.406   1.754   3.803  1.6175 -0.1428  2.5845
  288PVA    C4648941   1.379   1.632   3.982 -0.3517  0.1979 -0.9965
  288PVA    H9148942   1.321   1.651   4.072 -2.0570  0.2598 -2.0590
  288PVA    H9248943   1.386   1.526   3.954  1.6361  0.5607 -2.1058
  288PVA    C4748944   1.519   1.685   4.033 -0.0313 -0.1541  0.0525
  288PVA    H9348945   1.595   1.624   3.984 -2.2192 -3.0643  0.0197
  288PVA    O1648946   1.544   1.820   3.992 -0.4543 -0.5357  0.0819
  288PVA    H9448947   1.617   1.851   4.047  0.6537  0.7129 -1.9873
  288PVA    C4848948   1.563   1.658   4.177 -0.9507 -1.0222  0.0170
  288PVA    H9548949   1.520   1.748   4.223 -2.0602 -1.3468 -0.3520
  288PVA    H9648950   1.499   1.591   4.235 -3.1303  3.4201  3.4451
  288PVA    C4948951   1.721   1.645   4.203 -1.1908 -0.8416 -1.0205
  288PVA    H9748952   1.737   1.548   4.250  1.7818  0.5741  1.1996
  288PVA    H9848953   1.767   1.622   4.106 -2.5585 -0.0210 -1.8947
  288PVA    C5048954   1.792   1.774   4.266  0.3320  0.8697 -0.4290
  288PVA    H9948955   1.738   1.801   4.357 -3.2292 -1.1884 -1.7295
  288PVA    O1748956   1.785   1.875   4.170  0.6194  0.5000 -0.1549
  288PVA   H10048957   1.800   1.963   4.209  1.6312  0.0891  0.4097
  288PVA    C5148958   1.932   1.734   4.312 -0.2690 -0.3120  0.5497
  288PVA   H10148959   1.924   1.651   4.383  0.3987  0.9837  2.2106
  288PVA   H10248960   2.001   1.687   4.241 -3.6863 -1.5583 -2.2495
  289PVA     C148961   4.746   4.643   3.801  0.1343 -0.3458  0.8694
  289PVA     H148962   4.721   4.537   3.811 -1.8641  0.0449  0.3625
  289PVA     H248963   4.764   4.697   3.896 -0.4572  4.0414 -1.2635
  289PVA     C248964   4.614   4.707   3.761 -0.6983 -0.3095 -0.2949
  289PVA     H348965   4.571   4.650   3.678 -1.8953 -0.7271  0.5879
  289PVA     O148966   4.655   4.839   3.733  0.3713 -0.5297 -0.7232
  289PVA     H448967   4.607   4.854   3.650 -3.0094 -2.9502  0.5647
  289PVA     C348968   4.504   4.701   3.891 -0.3927  0.6576  0.7322
  289PVA     H548969   4.557   4.723   3.984  2.0028  0.5934 -0.5273
  289PVA     H648970   4.499   4.593   3.907 -1.1030  0.8534  1.9381
  289PVA     C448971   4.365   4.762   3.862  0.0603 -0.3215 -0.8986
  289PVA     H748972   4.370   4.871   3.869 -2.2673 -0.2605  3.1105
  289PVA     H848973   4.328   4.733   3.764  1.5082  0.8853 -1.8513
  289PVA     C548974   4.241   4.720   3.951  0.3279 -0.3931 -0.1285
  289PVA     H948975   4.231   4.614   3.926  1.3928  0.0723 -2.8496
  289PVA     O248976   4.245   4.758   4.083 -0.1503 -0.8315 -0.0247
  289PVA    H1048977   4.248   4.854   4.074 -1.0700 -1.0334 -4.2054
  289PVA     C648978   4.098   4.780   3.896  0.0012  0.9050 -0.5833
  289PVA    H1148979   4.092   4.889   3.910  0.0348  0.8493 -0.1239
  289PVA    H1248980   4.092   4.750   3.791 -1.3858  2.0829 -0.8603
  289PVA     C748981   3.961   4.746   3.959 -0.5747  0.2408 -0.3699
  289PVA    H1348982   3.956   4.802   4.054  1.5638 -1.7042  0.9838
  289PVA    H1448983   3.959   4.639   3.985 -2.4481  0.5961  1.2420
  289PVA     C848984   3.831   4.769   3.879  0.5999  0.2330  0.7565
  289PVA    H1548985   3.844   4.866   3.830 -1.3433  1.2140  2.0592
  289PVA     O348986   3.837   4.674   3.779  0.7677  0.4758 -0.5703
  289PVA    H1648987   3.766   4.715   3.725  1.3016  1.6659 -0.3981
  289PVA     C948988   3.685   4.758   3.956 -0.6902 -0.5589 -0.0752
  289PVA    H1748989   3.677   4.838   4.030  2.4459  1.4152 -1.6471
  289PVA    H1848990   3.668   4.660   4.003 -2.8198 -0.3700 -0.3687
  289PVA    C1048991   3.565   4.781   3.858  0.0160  0.0484 -0.3655
  289PVA    H1948992   3.553   4.886   3.829 -2.9457  0.5244  2.0428
  289PVA    H2048993   3.574   4.714   3.772  0.3153  1.7083 -1.6774
  289PVA    C1148994   3.421   4.765   3.912  1.0251  0.5033 -0.7403
  289PVA    H2148995   3.420   4.657   3.935  2.3325  0.9848  1.9793
  289PVA     O448996   3.411   4.836   4.038 -0.7763 -0.2103  1.5539
  289PVA    H2248997   3.344   4.903   4.018  2.4843  2.5456 -1.5785
  289PVA    C1248998   3.304   4.808   3.808  0.4288 -0.0863  0.5554
  289PVA    H2348999   3.316   4.917   3.807  1.0304 -0.1424  0.9699
  289PVA    H2449000   3.338   4.766   3.713 -4.1107 -1.3605 -0.7703
  289PVA    C1349001   3.145   4.798   3.838  0.9338  0.9044 -1.1341
  289PVA    H2549002   3.131   4.803   3.947  2.9350  1.2727 -0.8551
  289PVA    H2649003   3.133   4.692   3.813  1.2847  0.1843  1.4793
  289PVA    C1449004   3.044   4.874   3.735 -0.1989 -0.4868 -0.0358
  289PVA    H2749005   3.085   4.976   3.740 -2.3468  0.5865 -2.2517
  289PVA     O549006   3.069   4.831   3.603 -0.4772 -0.4214  0.7648
  289PVA    H2849007   3.011   4.762   3.567  1.5645 -3.0011  2.0420
  289PVA    C1549008   2.889   4.876   3.758  0.1707 -0.2838 -0.3830
  289PVA    H2949009   2.852   4.773   3.769 -2.0529  0.3175 -1.5446
  289PVA    H3049010   2.865   4.925   3.854 -1.5078 -0.2168 -0.7997
  289PVA    C1649011   2.803   4.952   3.641  0.0148 -0.8487  0.8629
  289PVA    H3149012   2.856   5.040   3.601  1.1786 -2.5589 -1.6063
  289PVA    H3249013   2.798   4.877   3.561  0.1524  1.2750 -1.2600
  289PVA    C1749014   2.654   5.006   3.665  0.0714  0.9465 -0.1089
  289PVA    H3349015   2.606   4.917   3.707  2.1343 -0.4956 -0.6627
  289PVA     O649016   2.666   5.109   3.759 -0.3262  0.5529  0.9169
  289PVA    H3449017   2.726   5.181   3.732 -1.9238  2.5342  2.4004
  289PVA    C1849018   2.595   5.058   3.532  1.2716 -1.0966 -0.2638
  289PVA    H3549019   2.662   5.131   3.484 -0.5536 -0.0331 -1.3034
  289PVA    H3649020   2.591   4.986   3.450  1.2497 -0.7173 -0.6007
  289PVA    C1949021   2.445   5.112   3.545 -0.7250 -0.6315 -0.8278
  289PVA    H3749022   2.452   5.185   3.626 -1.5028  1.0751 -2.2103
  289PVA    H3849023   2.392   5.035   3.602  0.1143 -1.0600 -0.6137
  289PVA    C2049024   2.371   5.153   3.411 -0.2646  0.1637 -0.3670
  289PVA    H3949025   2.342   5.052   3.378 -3.7286 -0.1548  2.9448
  289PVA     O749026   2.480   5.174   3.309  0.5156 -0.8514  0.0142
  289PVA    H4049027   2.492   5.086   3.270  0.8195 -1.1069  0.6719
  289PVA    C2149028   2.253   5.249   3.420 -0.4608 -0.8332 -1.4060
  289PVA    H4149029   2.280   5.339   3.476 -0.4822 -2.2076  0.9639
  289PVA    H4249030   2.187   5.192   3.487  1.1074 -2.3193 -1.0387
  289PVA    C2249031   2.173   5.281   3.283  0.1870 -0.0664  1.3331
  289PVA    H4349032   2.233   5.236   3.203  0.7108 -2.1672  2.8132
  289PVA    H4449033   2.079   5.227   3.300 -0.6506  0.4109 -1.3666
  289PVA    C2349034   2.119   5.428   3.253 -0.5516 -0.2007 -0.6085
  289PVA    H4549035   2.124   5.442   3.144 -0.0859 -3.8768 -1.1882
  289PVA     O849036   2.199   5.524   3.315  0.2114 -0.3788  0.1389
  289PVA    H4649037   2.149   5.607   3.311 -2.6507 -2.0318 -1.7796
  289PVA    C2449038   1.970   5.473   3.281 -0.0660 -1.3855  0.5872
  289PVA    H4749039   1.899   5.428   3.210  1.2793 -2.7520  0.0450
  289PVA    H4849040   1.940   5.436   3.379 -1.0605 -0.8266  0.5153
  289PVA    C2549041   1.939   5.624   3.247  0.6514 -0.4535  0.1513
  289PVA    H4949042   1.999   5.641   3.156  0.2019 -1.0106 -0.2640
  289PVA    H5049043   1.968   5.702   3.318 -0.1502  2.1033 -2.1921
  289PVA    C2649044   1.790   5.674   3.223 -0.1487 -0.6406  0.0691
  289PVA    H5149045   1.754   5.648   3.123 -1.4825 -0.8398  0.5736
  289PVA     O949046   1.689   5.636   3.306  0.3564  1.3402  0.9519
  289PVA    H5249047   1.747   5.627   3.383  0.2188 -7.8347  1.0757
  289PVA    C2749048   1.783   5.837   3.229  0.3224  0.9128 -0.1659
  289PVA    H5349049   1.876   5.870   3.181  2.7818 -0.9968  2.8339
  289PVA    H5449050   1.796   5.864   3.334  3.5766 -2.5659  0.5394
  289PVA    C2849051   1.663   5.915   3.185 -0.0449  0.6909 -0.1563
  289PVA    H5549052   1.573   5.869   3.226  1.7114 -3.5819 -0.5920
  289PVA    H5649053   1.663   5.895   3.077  1.7159 -0.5342  0.0318
  289PVA    C2949054   1.657   6.073   3.215 -0.0556  0.3382  0.3337
  289PVA    H5749055   1.669   6.104   3.320 -1.0910 -1.4017  1.0190
  289PVA    O1049056   1.746   6.140   3.112 -0.9979  0.4720 -0.0397
  289PVA    H5849057   1.835   6.136   3.150 -0.8412  1.6676 -0.2629
  289PVA    C3049058   1.524   6.147   3.168 -0.3024  0.1655 -0.6930
  289PVA    H5949059   1.509   6.118   3.063  0.1932 -0.6572 -0.5386
  289PVA    H6049060   1.437   6.111   3.225  1.4932 -0.5347  1.7683
  289PVA    C3149061   1.521   6.307   3.165  0.9523 -0.0738 -0.6319
  289PVA    H6149062   1.589   6.357   3.095 -2.7873  0.9020 -3.9540
  289PVA    H6249063   1.550   6.360   3.256 -1.7599  1.1738 -0.3982
  289PVA    C3249064   1.383   6.374   3.116  0.7331  0.3109  0.7812
  289PVA    H6349065   1.401   6.413   3.015  0.7587 -0.5912  0.4242
  289PVA    O1149066   1.279   6.282   3.110  0.2672  0.0164 -0.4953
  289PVA    H6449067   1.202   6.332   3.080 -0.5492 -2.3684 -2.8232
  289PVA    C3349068   1.342   6.505   3.201  1.1507  0.8541 -0.8544
  289PVA    H6549069   1.376   6.594   3.146  0.0747  0.9388 -1.4041
  289PVA    H6649070   1.403   6.496   3.292 -2.8558 -0.4825  1.9864
  289PVA    C3449071   1.195   6.525   3.259 -0.5783 -0.9160  0.7281
  289PVA    H6749072   1.122   6.461   3.209 -0.3095  0.7952 -2.0568
  289PVA    H6849073   1.200   6.471   3.354 -1.7254 -2.5051 -0.0705
  289PVA    C3549074   1.132   6.667   3.287  0.3190  0.2371  0.4350
  289PVA    H6949075   1.186   6.711   3.372 -2.2551 -0.0142  2.3617
  289PVA    O1249076   1.145   6.736   3.171  0.0498 -0.3267 -0.0996
  289PVA    H7049077   1.086   6.702   3.102  1.5880 -0.8848 -1.2054
  289PVA    C3649078   0.974   6.694   3.318  0.6987  0.7093  0.3028
  289PVA    H7149079   0.904   6.663   3.239  0.1473  1.6840  0.3822
  289PVA    H7249080   0.948   6.629   3.402  1.6747  0.6367  0.5604
  289PVA    C3749081   0.938   6.839   3.381  0.1029 -0.4319  0.0297
  289PVA    H7349082   0.965   6.898   3.293  1.1801 -1.7933 -0.5743
  289PVA    H7449083   0.987   6.856   3.478 -0.5360  2.1546 -0.0260
  289PVA    C3849084   0.793   6.876   3.409 -0.4309  1.0252  0.0107
  289PVA    H7549085   0.748   6.821   3.492  3.4960  4.8237  5.2805
  289PVA    O1349086   0.711   6.851   3.286  0.0140  0.0625 -0.7635
  289PVA    H7649087   0.780   6.838   3.219 -0.2038 -1.0195 -0.8072
  289PVA    C3949088   0.781   7.026   3.458 -0.6833  0.5114  0.1193
  289PVA    H7749089   0.830   7.096   3.389  1.5066  0.5883  1.6508
  289PVA    H7849090   0.818   7.029   3.561  0.7849 -0.8562 -0.3080
  289PVA    C4049091   0.644   7.102   3.471 -0.0255  0.6894 -0.4397
  289PVA    H7949092   0.603   7.134   3.375 -1.0774 -2.2414 -1.0700
  289PVA    H8049093   0.581   7.027   3.520  0.3673  1.9910  2.2068
  289PVA    C4149094   0.662   7.236   3.554  0.4612  0.1799  0.2542
  289PVA    H8149095   0.749   7.286   3.510 -1.3722  1.7050 -1.9127
  289PVA    O1449096   0.675   7.213   3.684  0.7366 -0.4614  0.9070
  289PVA    H8249097   0.600   7.157   3.712 -0.5976 -1.3718 -3.6007
  289PVA    C4249098   0.554   7.351   3.535  0.2075  0.0471  0.0908
  289PVA    H8349099   0.450   7.320   3.518 -0.5960  2.1209  0.8276
  289PVA    H8449100   0.589   7.379   3.435 -1.0755  0.0028 -0.3900
  289PVA    C4349101   0.531   7.474   3.639  0.0834 -0.0102  0.2384
  289PVA    H8549102   0.638   7.498   3.649 -0.4538  5.1757 -2.7215
  289PVA    H8649103   0.497   7.452   3.741  0.3125  3.4678  1.2101
  289PVA    C4449104   0.453   7.610   3.596 -0.0740 -0.5025  0.6155
  289PVA    H8749105   0.495   7.667   3.512 -0.3040 -1.4921 -0.1876
  289PVA    O1549106   0.499   0.012   3.695  0.2622 -0.6354 -0.3556
  289PVA    H8849107   0.487   0.098   3.650 -1.2909 -1.5867 -1.8861
  289PVA    C4549108   0.297   7.627   3.595  0.5615 -0.4551 -0.3680
  289PVA    H8949109   0.278   7.589   3.494  2.7803  1.6111 -1.6810
  289PVA    H9049110   0.241   7.562   3.663  1.0148 -0.1375  0.3124
  289PVA    C4649111   0.222   0.079   3.608  0.6477  0.2557  0.0065
  289PVA    H9149112   0.257   0.152   3.682 -2.7167  3.6130 -1.3593
  289PVA    H9249113   0.235   0.123   3.508  0.5540  0.4375  0.0731
  289PVA    C4749114   0.058   0.118   3.629 -0.1913  0.4431  0.4288
  289PVA    H9349115   0.021   0.158   3.533  2.2020  0.3101 -0.6090
  289PVA    O1649116   7.758   7.678   3.609  0.2422  0.2691 -0.7385
  289PVA    H9449117   0.024   7.605   3.666  1.8174 -1.8904 -4.0860
  289PVA    C4849118   7.738   0.169   3.758 -0.0321  0.0121  0.6487
  289PVA    H9549119   7.657   0.104   3.793 -3.4908  3.5102 -0.1281
  289PVA    H9649120   0.044   0.174   3.841 -1.6890  0.5434  2.0975
  289PVA    C4949121   7.668   0.315   3.741  0.2703  0.1710 -0.0296
  289PVA    H9749122   7.614   0.329   3.647 -0.4586  0.6237  0.4474
  289PVA    H9849123   7.754   0.382   3.759 -0.9269  0.6159  6.2869
  289PVA    C5049124   7.553   0.374   3.847 -0.7611  0.2416  0.0610
  289PVA    H9949125   7.596   0.359   3.946 -1.9952 -0.0316  0.5752
  289PVA    O1749126   7.442   0.287   3.839  0.5524  0.2535 -0.7169
  289PVA   H10049127   7.470   0.199   3.808 -0.3357  0.6271 -2.6886
  289PVA    C5149128   7.514   0.525   3.852 -0.5529 -0.5135  0.2836
  289PVA   H10149129   7.505   0.550   3.746 -3.1076 -1.0803  0.3019
  289PVA   H10249130   7.595   0.587   3.893  1.6829 -2.2086 -1.2728
  290PVA     C149131   2.790   1.981   3.773  0.8899  0.5227  0.1216
  290PVA     H149132   2.764   1.879   3.802 -2.8138  2.6441  5.9572
  290PVA     H249133   2.686   1.986   3.740  1.6160 -1.6155 -2.8606
  290PVA     C249134   2.874   1.997   3.647 -0.3791 -0.0051  1.2176
  290PVA     H349135   2.882   1.900   3.597 -3.4688  1.8216 -3.5817
  290PVA     O149136   2.991   2.062   3.687  0.4664 -0.2114  0.5385
  290PVA     H449137   3.050   1.991   3.658 -0.0420 -0.9123  1.1849
  290PVA     C349138   2.821   2.077   3.515  0.7091  0.4219 -0.4287
  290PVA     H549139   2.733   2.141   3.529  0.7281  0.3757 -0.0922
  290PVA     H649140   2.783   2.005   3.442  0.8452  0.1438 -0.2246
  290PVA     C449141   2.927   2.169   3.453 -1.2533  0.1110  0.8766
  290PVA     H749142   2.851   2.225   3.398  0.5785  3.3275  1.3868
  290PVA     H849143   2.978   2.230   3.529  2.8239 -3.2078  1.1360
  290PVA     C549144   3.018   2.099   3.352  0.6838 -0.0831  0.1818
  290PVA     H949145   3.048   2.006   3.401  4.0926  1.5525  1.5423
  290PVA     O249146   2.940   2.068   3.229 -0.2692 -0.7768  0.3663
  290PVA    H1049147   2.976   1.981   3.204 -2.8267 -1.7037 -0.3443
  290PVA     C649148   3.144   2.176   3.337 -0.5916 -1.1776 -0.0457
  290PVA    H1149149   3.183   2.214   3.433  2.2722 -0.0593 -1.5331
  290PVA    H1249150   3.101   2.267   3.291 -3.1182 -3.5921 -2.8936
  290PVA     C749151   3.262   2.116   3.250 -1.2371 -0.2860 -0.1346
  290PVA    H1349152   3.307   2.197   3.191  0.5937 -1.6128 -0.6509
  290PVA    H1449153   3.232   2.038   3.179 -2.8401 -0.5345  0.7876
  290PVA     C849154   3.383   2.070   3.332  0.3705  0.1388 -1.0277
  290PVA    H1549155   3.389   2.154   3.403 -0.4756  1.2260 -2.1955
  290PVA     O349156   3.361   1.942   3.399 -0.1958 -0.4793  0.5591
  290PVA    H1649157   3.444   1.892   3.394 -0.4186 -0.7995  0.0075
  290PVA     C949158   3.521   2.036   3.267 -0.4885  0.7904 -0.2800
  290PVA    H1749159   3.565   2.129   3.230 -0.4396  0.4427 -1.1240
  290PVA    H1849160   3.486   1.972   3.184 -0.9922 -0.2430  0.7055
  290PVA    C1049161   3.633   1.945   3.340 -0.0564 -0.4880  0.1784
  290PVA    H1949162   3.635   1.972   3.447  2.1715  5.8250 -1.0110
  290PVA    H2049163   3.597   1.842   3.338 -2.1546  0.1886 -0.4267
  290PVA    C1149164   3.776   1.957   3.273  1.0975 -0.7363  0.2364
  290PVA    H2149165   3.774   2.001   3.172 -2.3577  1.2389  1.0199
  290PVA     O449166   3.866   2.028   3.356 -0.4190 -1.0426 -0.4689
  290PVA    H2249167   3.934   2.051   3.291 -0.5690  0.6400 -0.0790
  290PVA    C1249168   3.837   1.816   3.265  0.1321 -0.3620  0.1366
  290PVA    H2349169   3.867   1.776   3.363 -2.9293  1.3589  1.9400
  290PVA    H2449170   3.770   1.747   3.212  1.1470  1.3826 -3.7025
  290PVA    C1349171   3.947   1.833   3.149 -0.2286 -0.5932  1.0558
  290PVA    H2549172   4.011   1.918   3.175  2.1718 -2.8737  3.1531
  290PVA    H2649173   3.884   1.848   3.061 -1.2957  2.1804  2.1997
  290PVA    C1449174   4.034   1.703   3.124 -0.5689  0.5050  0.1785
  290PVA    H2749175   4.127   1.725   3.178 -1.5315  3.2619  0.8746
  290PVA     O549176   3.989   1.590   3.196 -0.2402  0.5776  0.1219
  290PVA    H2849177   4.015   1.589   3.289 -0.1949 -1.1345  0.1243
  290PVA    C1549178   4.078   1.662   2.984 -0.3254  0.7647 -0.1374
  290PVA    H2949179   3.990   1.687   2.923 -0.6172  3.0080  1.1209
  290PVA    H3049180   4.091   1.553   2.986 -2.9924  0.3903  0.6270
  290PVA    C1649181   4.200   1.724   2.918 -0.0298  0.6521 -0.4329
  290PVA    H3149182   4.259   1.748   3.007 -0.7497 -3.1240  1.2713
  290PVA    H3249183   4.181   1.814   2.858  4.0646  1.0063 -1.5746
  290PVA    C1749184   4.269   1.618   2.819 -0.4381 -0.1554  0.6547
  290PVA    H3349185   4.268   1.516   2.860 -0.1800  0.0885  1.2835
  290PVA     O649186   4.192   1.629   2.699 -0.0676  0.0193 -0.9692
  290PVA    H3449187   4.117   1.571   2.721  0.6355 -0.6279 -0.1939
  290PVA    C1849188   4.414   1.639   2.802 -0.0189  0.1204  0.5952
  290PVA    H3549189   4.415   1.698   2.709  1.5911  0.9914  1.1257
  290PVA    H3649190   4.455   1.712   2.872 -1.7447 -1.1385  3.0615
  290PVA    C1949191   4.511   1.512   2.794  0.4170  0.5109 -0.3998
  290PVA    H3749192   4.488   1.467   2.697 -1.3714 -1.1902  0.7493
  290PVA    H3849193   4.459   1.439   2.858 -3.8006  2.5755 -1.1098
  290PVA    C2049194   4.666   1.529   2.833  0.1189  0.1674 -0.2915
  290PVA    H3949195   4.715   1.475   2.751 -1.1051  2.8569 -3.0180
  290PVA     O749196   4.695   1.665   2.794  0.5379  0.1019  0.2616
  290PVA    H4049197   4.683   1.670   2.697 -3.5909 -2.1279  0.4223
  290PVA    C2149198   4.697   1.497   2.977 -0.0634 -0.6348 -0.4806
  290PVA    H4149199   4.633   1.411   2.997 -1.8213  0.8358  0.4597
  290PVA    H4249200   4.642   1.571   3.036  0.4945 -0.8080  0.2735
  290PVA    C2249201   4.839   1.498   3.033  0.3361  0.4617  0.3568
  290PVA    H4349202   4.892   1.422   2.975  4.9918  2.1796  1.9537
  290PVA    H4449203   4.876   1.598   3.007 -2.0317  0.6786 -2.7657
  290PVA    C2349204   4.847   1.472   3.182  0.8001  0.6401  0.2050
  290PVA    H4549205   4.752   1.511   3.221  0.7467  1.4682 -0.7117
  290PVA     O849206   4.865   1.330   3.186  1.0357  0.6977 -0.6313
  290PVA    H4649207   4.961   1.331   3.170  0.5321  2.8580 -5.1691
  290PVA    C2449208   4.963   1.549   3.262 -0.2620 -0.6152  0.1499
  290PVA    H4749209   5.047   1.482   3.239 -1.6607 -1.5943 -2.5252
  290PVA    H4849210   4.998   1.644   3.219  0.1680  0.0429  1.8964
  290PVA    C2549211   4.943   1.563   3.417  0.4780  0.4676 -0.0938
  290PVA    H4949212   4.846   1.607   3.442 -0.1189 -0.4687 -0.7138
  290PVA    H5049213   4.953   1.468   3.471 -0.4011 -0.5334 -1.6301
  290PVA    C2649214   5.056   1.643   3.498 -0.4138 -0.5311  0.9101
  290PVA    H5149215   5.140   1.586   3.457 -0.7912 -1.2538  1.1165
  290PVA     O949216   5.049   1.632   3.647  0.1400 -0.1855  0.3812
  290PVA    H5249217   5.140   1.616   3.676 -0.1676  0.6544  1.9085
  290PVA    C2749218   5.067   1.796   3.462 -0.9460 -0.4490  0.3281
  290PVA    H5349219   4.981   1.836   3.516  0.0998  0.8452  1.0975
  290PVA    H5449220   5.050   1.813   3.354 -0.3102 -2.9416 -0.2244
  290PVA    C2849221   5.176   1.875   3.530 -0.7325 -0.1823 -0.4229
  290PVA    H5549222   5.121   1.969   3.549 -1.0580  0.4679 -3.9354
  290PVA    H5649223   5.188   1.825   3.627  0.2586 -2.7731 -1.8107
  290PVA    C2949224   5.296   1.922   3.449 -0.0523 -0.4998 -1.5226
  290PVA    H5749225   5.354   1.841   3.404 -0.1589 -0.0717 -2.4637
  290PVA    O1049226   5.384   1.995   3.527 -0.9274  0.6160 -0.7179
  290PVA    H5849227   5.427   1.933   3.588 -1.9273  1.7387  1.1984
  290PVA    C3049228   5.267   2.020   3.324  0.0495  0.2229 -0.7130
  290PVA    H5949229   5.216   2.109   3.364  3.1713  2.7287 -1.9353
  290PVA    H6049230   5.201   1.971   3.252  0.7882 -0.5699 -0.8645
  290PVA    C3149231   5.395   2.055   3.237  0.7201 -0.3761 -0.3770
  290PVA    H6149232   5.444   2.128   3.303  1.3241 -1.5635  0.5225
  290PVA    H6249233   5.358   2.115   3.153 -4.3059 -1.0216  1.0768
  290PVA    C3249234   5.501   1.954   3.197  0.5107 -0.0312 -0.8749
  290PVA    H6349235   5.436   1.877   3.153  0.2172  0.6754 -1.7102
  290PVA    O1149236   5.564   1.908   3.313 -0.5802 -0.4177 -0.4863
  290PVA    H6449237   5.539   1.970   3.384  3.5008  3.1444 -1.7343
  290PVA    C3349238   5.609   1.996   3.099  0.0095  0.3256  0.4888
  290PVA    H6549239   5.693   2.026   3.162 -0.6234  0.3981  1.3098
  290PVA    H6649240   5.582   2.092   3.054 -2.1440 -0.7357 -0.6618
  290PVA    C3449241   5.674   1.900   3.000  0.1235  0.1276  0.0505
  290PVA    H6749242   5.598   1.875   2.925  1.1846  4.3249 -2.7468
  290PVA    H6849243   5.755   1.945   2.942 -1.4729  4.0486  0.5839
  290PVA    C3549244   5.731   1.772   3.048  0.5740 -0.9084  0.3003
  290PVA    H6949245   5.675   1.708   3.117  0.7292 -2.3321 -0.8373
  290PVA    O1249246   5.858   1.781   3.119 -0.4609 -1.5721  0.9516
  290PVA    H7049247   5.869   1.819   3.208 -0.2518 -0.3899  0.4489
  290PVA    C3649248   5.775   1.675   2.924  0.4580  0.3822  0.1144
  290PVA    H7149249   5.847   1.729   2.862  2.5931 -2.8258 -0.4565
  290PVA    H7249250   5.691   1.645   2.860  1.3585 -2.4983  0.1570
  290PVA    C3749251   5.859   1.544   2.974 -0.2591 -0.1370 -0.0409
  290PVA    H7349252   5.858   1.461   2.902  0.7247 -0.3473  0.1827
  290PVA    H7449253   5.832   1.507   3.073 -1.3878 -3.0417 -1.3111
  290PVA    C3849254   6.006   1.568   2.997  0.6914  0.7380 -1.1205
  290PVA    H7549255   6.016   1.623   3.092 -2.1400 -1.3953  0.5807
  290PVA    O1349256   6.069   1.652   2.899 -0.0722  0.2419  0.5611
  290PVA    H7649257   6.049   1.747   2.911 -0.8760 -0.2323  3.6771
  290PVA    C3949258   6.090   1.437   3.018 -0.7909 -1.1886  0.0937
  290PVA    H7749259   6.087   1.396   2.916  2.6774  1.4551 -1.2767
  290PVA    H7849260   6.023   1.371   3.075  1.4718 -2.7739  1.1162
  290PVA    C4049261   6.243   1.458   3.083 -0.1483  0.7451  0.5068
  290PVA    H7949262   6.293   1.522   3.009  1.1427 -0.8198 -0.0340
  290PVA    H8049263   6.244   1.481   3.190  2.0037 -3.0635  1.4718
  290PVA    C4149264   6.318   1.328   3.067  0.3449  1.0379 -0.4639
  290PVA    H8149265   6.291   1.300   2.964 -2.4176 -1.8364  0.8587
  290PVA    O1449266   6.256   1.227   3.146 -0.0628 -0.0889 -0.6944
  290PVA    H8249267   6.186   1.170   3.110 -1.5295 -1.4098  3.6458
  290PVA    C4249268   6.472   1.361   3.081  0.0903 -0.6277 -1.4636
  290PVA    H8349269   6.506   1.440   3.012 -2.7563  1.4936 -0.5911
  290PVA    H8449270   6.492   1.400   3.181  2.0982 -2.9268 -0.8581
  290PVA    C4349271   6.552   1.235   3.063 -0.8644 -0.4548  0.4298
  290PVA    H8549272   6.497   1.148   3.099  2.4654 -3.5550 -1.3619
  290PVA    H8649273   6.564   1.224   2.954 -2.7154 -0.2928  0.1747
  290PVA    C4449274   6.686   1.229   3.136  0.1680  0.6453  0.4608
  290PVA    H8749275   6.670   1.245   3.244  3.2988  2.3386  0.8165
  290PVA    O1549276   6.767   1.334   3.108 -0.4071  0.1790 -0.1086
  290PVA    H8849277   6.729   1.391   3.039 -3.9903 -0.3194  1.2517
  290PVA    C4549278   6.763   1.096   3.122 -0.8726 -0.8040 -0.6975
  290PVA    H8949279   6.834   1.083   3.040  0.3114 -1.0012  0.3215
  290PVA    H9049280   6.688   1.018   3.103 -0.0591 -2.0348  0.8404
  290PVA    C4649281   6.860   1.050   3.237  1.1060  0.7134  0.1631
  290PVA    H9149282   6.903   1.134   3.292  0.5785 -1.6316  4.7054
  290PVA    H9249283   6.803   0.987   3.308 -0.0923  2.2170  0.5877
  290PVA    C4749284   6.976   0.962   3.188 -0.0197 -1.1299 -0.5615
  290PVA    H9349285   7.022   1.027   3.112  2.0175 -2.9932 -1.0204
  290PVA    O1649286   6.959   0.843   3.118  0.3086  0.7793  0.0583
  290PVA    H9449287   6.984   0.849   3.024  0.2814 -3.4409 -0.4366
  290PVA    C4849288   7.069   0.937   3.316 -1.0095 -0.4684  0.0840
  290PVA    H9549289   7.163   0.955   3.263 -1.8020 -2.3846 -2.1502
  290PVA    H9649290   7.074   1.017   3.391  0.7862  1.8189 -2.2858
  290PVA    C4949291   7.068   0.800   3.395  0.3094  0.0209  0.6147
  290PVA    H9749292   7.054   0.708   3.337  0.5617 -2.0809  3.6174
  290PVA    H9849293   6.964   0.788   3.429  0.0288 -2.1206 -0.7915
  290PVA    C5049294   7.172   0.784   3.512 -0.6275  0.7105 -0.4061
  290PVA    H9949295   7.184   0.873   3.575  1.6560 -1.0536  1.8921
  290PVA    O1749296   7.302   0.781   3.468  0.0670  0.7756  0.3035
  290PVA   H10049297   7.306   0.877   3.453 -0.7224  0.4426 -2.8007
  290PVA    C5149298   7.146   0.689   3.637  0.2483 -0.0903 -0.9178
  290PVA   H10149299   7.126   0.584   3.616 -2.2787 -0.9825  4.2765
  290PVA   H10249300   7.060   0.721   3.696  2.0052  0.3648  1.5662
  291PVA     C149301   2.901   2.594   3.887  0.2412 -0.4481  0.7265
  291PVA     H149302   2.942   2.645   3.975  1.0367  0.8966 -0.3758
  291PVA     H249303   2.822   2.666   3.862 -2.4516 -2.3962  2.9913
  291PVA     C249304   3.009   2.668   3.785 -0.7531 -0.5740  0.4830
  291PVA     H349305   3.074   2.593   3.740 -2.8178 -1.6740 -0.8603
  291PVA     O149306   3.104   2.741   3.861  0.5875  0.5707 -0.0712
  291PVA     H449307   3.113   2.832   3.829  2.4744  2.0465  3.9917
  291PVA     C349308   2.955   2.778   3.683 -0.7581 -0.0103  0.6829
  291PVA     H549309   2.858   2.821   3.710 -1.2674  0.3197 -1.5203
  291PVA     H649310   2.943   2.714   3.595  1.5073 -1.6185  1.4471
  291PVA     C449311   3.055   2.888   3.625  1.1410 -0.0263  0.5532
  291PVA     H749312   3.105   2.846   3.537 -1.4639  4.2559 -3.4432
  291PVA     H849313   3.115   2.940   3.700 -2.8190 -3.6264  7.0878
  291PVA     C549314   2.970   3.000   3.556  0.4722  0.1595 -0.2700
  291PVA     H949315   2.894   3.042   3.623 -3.7457  3.1721 -5.9750
  291PVA     O249316   2.904   2.933   3.462 -0.3844 -0.1614  0.5914
  291PVA    H1049317   2.809   2.946   3.479 -0.2681  1.6132  0.1149
  291PVA     C649318   3.032   3.122   3.486 -0.1272  0.2765 -0.2646
  291PVA    H1149319   3.078   3.073   3.400  1.5124  0.1252  0.6593
  291PVA    H1249320   2.950   3.182   3.444  2.0313  2.7578 -1.2645
  291PVA     C749321   3.130   3.218   3.556  0.2848 -0.7395 -0.2205
  291PVA    H1349322   3.225   3.165   3.570 -0.5379 -1.8567  1.4095
  291PVA    H1449323   3.092   3.253   3.653  0.3090 -0.8152 -0.1836
  291PVA     C849324   3.151   3.357   3.469 -0.4665  0.5328  0.5481
  291PVA    H1549325   3.203   3.327   3.378  1.5293  0.0172  1.7829
  291PVA     O349326   3.023   3.418   3.443 -0.1014 -0.3386 -0.2647
  291PVA    H1649327   3.022   3.437   3.348  0.5490 -2.7079 -0.8082
  291PVA     C949328   3.233   3.469   3.546  0.6580  0.0842 -0.3330
  291PVA    H1749329   3.342   3.456   3.550  0.5515 -2.5171 -2.6128
  291PVA    H1849330   3.203   3.489   3.650 -1.8029  3.9466 -1.5803
  291PVA    C1049331   3.209   3.607   3.475  0.5818  0.1195  0.2687
  291PVA    H1949332   3.209   3.597   3.366 -1.8066  1.0039  0.1369
  291PVA    H2049333   3.103   3.630   3.494 -0.9180 -5.3527  0.2828
  291PVA    C1149334   3.297   3.728   3.533 -0.0113 -0.2345  0.4617
  291PVA    H2149335   3.272   3.737   3.639 -0.5805 -0.1692  0.3281
  291PVA     O449336   3.443   3.700   3.519 -0.3819 -0.5296 -0.3950
  291PVA    H2249337   3.494   3.683   3.600  0.0761 -1.5432 -0.8698
  291PVA    C1249338   3.273   3.874   3.490  0.7857  0.4896  1.0808
  291PVA    H2349339   3.260   3.938   3.578  1.4339 -0.0531  1.5900
  291PVA    H2449340   3.184   3.876   3.427  1.8953  0.2742 -0.5521
  291PVA    C1349341   3.390   3.954   3.422  1.0160  0.0993  0.0374
  291PVA    H2549342   3.482   3.961   3.481  2.4114 -1.6965 -1.7656
  291PVA    H2649343   3.435   3.899   3.338  0.0188 -0.3979 -0.1892
  291PVA    C1449344   3.345   4.096   3.372  0.9627  0.4037  0.6478
  291PVA    H2749345   3.265   4.062   3.305  0.8329 -0.0799  1.0442
  291PVA     O549346   3.304   4.174   3.482 -0.0391  0.1704  0.4655
  291PVA    H2849347   3.352   4.150   3.564  2.2422 -0.9277 -1.0618
  291PVA    C1549348   3.445   4.173   3.280 -0.5279 -0.2486  0.0346
  291PVA    H2949349   3.493   4.115   3.200 -0.6405  0.3190 -0.4523
  291PVA    H3049350   3.523   4.219   3.341 -3.4663  1.7951  2.5816
  291PVA    C1649351   3.387   4.288   3.186 -0.3558 -0.5105 -0.0824
  291PVA    H3149352   3.303   4.248   3.128 -2.8076 -2.4891  4.3450
  291PVA    H3249353   3.342   4.359   3.256 -0.1149  0.7516 -1.1760
  291PVA    C1749354   3.499   4.353   3.093  0.6396 -0.5027 -0.7102
  291PVA    H3349355   3.589   4.358   3.155  0.7231 -2.6829 -0.5771
  291PVA     O649356   3.502   4.275   2.970 -0.0536 -0.6911  0.8149
  291PVA    H3449357   3.421   4.300   2.923 -1.7472 -3.2151  2.1743
  291PVA    C1849358   3.457   4.498   3.057 -0.3817 -0.0875  0.3439
  291PVA    H3549359   3.383   4.500   2.977  0.9905  1.8714 -0.9734
  291PVA    H3649360   3.420   4.558   3.142 -0.0542 -0.3445  0.6751
  291PVA    C1949361   3.572   4.571   2.985  0.7747  0.5530 -0.2260
  291PVA    H3749362   3.574   4.568   2.875 -2.3044  1.1273 -0.3942
  291PVA    H3849363   3.657   4.501   2.989  0.8551  0.6698  0.2334
  291PVA    C2049364   3.607   4.729   3.017 -0.4235  1.2420  0.1369
  291PVA    H3949365   3.614   4.750   3.125  1.3910 -0.3575  0.3840
  291PVA     O749366   3.737   4.744   2.958 -0.0933  0.2386 -0.5598
  291PVA    H4049367   3.738   4.841   2.962 -3.0447  0.3647 -0.8197
  291PVA    C2149368   3.511   4.847   2.958 -0.1087 -0.5253 -0.9982
  291PVA    H4149369   3.413   4.798   2.966  0.6070 -2.4668 -3.1043
  291PVA    H4249370   3.553   4.851   2.856  0.6634 -1.5919 -0.7394
  291PVA    C2249371   3.516   4.982   3.035 -0.7011 -0.6183  0.5118
  291PVA    H4349372   3.611   5.028   3.004 -1.5974  1.7233  0.9745
  291PVA    H4449373   3.530   4.970   3.143 -0.0619 -0.9961  0.3892
  291PVA    C2349374   3.407   5.080   2.999 -0.2486 -0.7550  0.3468
  291PVA    H4549375   3.353   5.050   2.908  0.4095  0.8073 -0.5979
  291PVA     O849376   3.468   5.185   2.916  0.1064 -0.0744  0.3872
  291PVA    H4649377   3.400   5.251   2.892  1.2242  0.6884 -0.8562
  291PVA    C2449378   3.322   5.135   3.114 -0.1340 -0.6535 -0.6609
  291PVA    H4749379   3.341   5.242   3.131  1.8497 -1.4311  3.0508
  291PVA    H4849380   3.368   5.120   3.212  1.2345  3.2135 -0.5359
  291PVA    C2549381   3.162   5.127   3.108  0.2158  0.2260  0.2344
  291PVA    H4949382   3.138   5.094   3.006 -0.9258  0.8464  0.2868
  291PVA    H5049383   3.129   5.232   3.111  1.1438  0.6537 -2.3207
  291PVA    C2649384   3.074   5.047   3.216 -1.3516  0.2753  0.0004
  291PVA    H5149385   3.141   4.960   3.211 -1.9141 -0.1169 -1.1024
  291PVA     O949386   3.099   5.102   3.342  0.5091  0.8311 -0.1331
  291PVA    H5249387   3.156   5.179   3.329 -1.6165  2.6337  0.6303
  291PVA    C2749388   2.924   4.994   3.191 -0.7924  0.9000  0.5550
  291PVA    H5349389   2.916   4.923   3.108  2.2213  0.7323  0.2881
  291PVA    H5449390   2.855   5.072   3.157 -0.6722  1.6970  2.0295
  291PVA    C2849391   2.866   4.904   3.320  0.7718 -0.1486  0.2923
  291PVA    H5549392   2.816   4.985   3.375  1.4078 -1.0360  2.2740
  291PVA    H5649393   2.956   4.883   3.380  2.3620 -1.9164 -2.5328
  291PVA    C2949394   2.770   4.778   3.282  1.0629  0.8500 -0.1096
  291PVA    H5749395   2.822   4.690   3.242  0.2717  0.4214 -0.2239
  291PVA    O1049396   2.671   4.827   3.194 -0.2426  0.7566  0.5074
  291PVA    H5849397   2.708   4.857   3.109  0.9601  0.8366  1.0343
  291PVA    C3049398   2.698   4.702   3.389  0.0894 -0.4036 -1.0493
  291PVA    H5949399   2.771   4.672   3.465 -1.7266  0.4000  1.1358
  291PVA    H6049400   2.615   4.761   3.429  1.8169  3.5432 -2.6720
  291PVA    C3149401   2.633   4.568   3.343  0.0587  0.5672 -1.3737
  291PVA    H6149402   2.707   4.500   3.298 -0.6637 -1.0899 -0.1604
  291PVA    H6249403   2.575   4.610   3.260  0.8418  4.9465  0.0217
  291PVA    C3249404   2.544   4.483   3.441 -0.8830 -0.4220 -0.6826
  291PVA    H6349405   2.594   4.465   3.536 -0.5328 -1.7698 -1.1032
  291PVA    O1149406   2.429   4.563   3.468 -0.3812 -0.6029  0.1735
  291PVA    H6449407   2.428   4.647   3.420  2.6988  0.1873  1.2528
  291PVA    C3349408   2.485   4.348   3.403  0.3404 -0.0516 -0.3216
  291PVA    H6549409   2.569   4.277   3.404 -0.0528 -0.9772 -5.5672
  291PVA    H6649410   2.468   4.363   3.296  1.3645  0.2401 -0.4606
  291PVA    C3449411   2.351   4.297   3.471 -1.1361 -0.3919 -0.1638
  291PVA    H6749412   2.320   4.352   3.561 -0.4454  0.4842 -0.4480
  291PVA    H6849413   2.276   4.336   3.402  2.0848  2.3040 -2.4853
  291PVA    C3549414   2.320   4.143   3.483  0.1114  0.6082 -0.4345
  291PVA    H6949415   2.404   4.091   3.530 -0.3834  1.3439  1.3512
  291PVA    O1249416   2.299   4.085   3.361 -0.1468 -0.6041 -0.6504
  291PVA    H7049417   2.322   3.991   3.373  2.4927 -0.0875 -0.9666
  291PVA    C3649418   2.208   4.119   3.581  0.6947  0.0882  0.1686
  291PVA    H7149419   2.234   4.153   3.682 -1.4018 -3.0336  1.9349
  291PVA    H7249420   2.129   4.182   3.537  2.7639 -0.6880 -5.3358
  291PVA    C3749421   2.153   3.972   3.588 -0.1181 -0.2468  0.4734
  291PVA    H7349422   2.246   3.918   3.613  0.5827  0.1873 -1.0753
  291PVA    H7449423   2.118   3.936   3.490  0.6683  1.6480 -0.5467
  291PVA    C3849424   2.042   3.946   3.688  1.5750  0.0073 -0.0707
  291PVA    H7549425   1.967   4.022   3.663  1.0509 -1.1414 -2.2208
  291PVA    O1349426   2.103   3.980   3.815  0.3518 -1.0324 -0.4225
  291PVA    H7649427   2.115   3.904   3.874  1.1545  0.9858  2.2219
  291PVA    C3949428   1.981   3.801   3.697  0.0885  0.2286 -0.3576
  291PVA    H7749429   1.948   3.770   3.597  2.9870 -2.7590 -0.5602
  291PVA    H7849430   2.081   3.757   3.707 -0.5028 -0.6419  2.6606
  291PVA    C4049431   1.885   3.778   3.814  0.8778 -0.0969 -0.9889
  291PVA    H7949432   1.942   3.811   3.901  0.0520  0.0321 -0.4824
  291PVA    H8049433   1.801   3.849   3.805 -0.4536 -1.7920 -2.7913
  291PVA    C4149434   1.838   3.630   3.805 -0.0255  0.2408  0.6263
  291PVA    H8149435   1.814   3.637   3.698  1.1194 -0.5410  0.3113
  291PVA    O1449436   1.933   3.530   3.833  0.3278  0.4734 -1.2393
  291PVA    H8249437   2.023   3.546   3.800  0.5418  2.6083  0.1815
  291PVA    C4249438   1.720   3.581   3.885  0.2098  0.3319  0.4367
  291PVA    H8349439   1.634   3.642   3.857  0.3388 -0.2969 -1.4524
  291PVA    H8449440   1.762   3.599   3.985  0.3163 -1.1380  0.6759
  291PVA    C4349441   1.690   3.428   3.881 -0.2024 -0.1262 -0.5815
  291PVA    H8549442   1.770   3.359   3.912  0.0572  0.0541 -0.8432
  291PVA    H8649443   1.689   3.409   3.773  2.0087 -1.9113 -0.3639
  291PVA    C4449444   1.551   3.369   3.927 -0.0851 -0.0593 -0.5996
  291PVA    H8749445   1.485   3.454   3.945  0.1904 -0.0065  0.1848
  291PVA    O1549446   1.580   3.316   4.053  0.3288  1.0145  0.6237
  291PVA    H8849447   1.643   3.372   4.101  1.6736  0.6604 -0.6322
  291PVA    C4549448   1.477   3.278   3.830  0.0668 -0.0355 -0.1358
  291PVA    H8949449   1.552   3.216   3.779 -1.9700 -0.9319 -2.2234
  291PVA    H9049450   1.413   3.336   3.763 -2.8377 -2.2427  0.5392
  291PVA    C4649451   1.389   3.157   3.890  0.3662  0.2933  0.0834
  291PVA    H9149452   1.449   3.068   3.910  0.1823  0.2917  0.6528
  291PVA    H9249453   1.345   3.186   3.986 -1.3172  0.0763 -0.5740
  291PVA    C4749454   1.271   3.103   3.795 -0.7591 -0.9439 -0.8727
  291PVA    H9349455   1.315   3.036   3.721  1.3878  0.0002 -0.5243
  291PVA    O1649456   1.207   3.214   3.731  0.1270 -1.3155  0.5409
  291PVA    H9449457   1.119   3.235   3.768 -1.9530 -1.0254 -3.9028
  291PVA    C4849458   1.157   3.027   3.875 -0.7260  0.4620 -0.7459
  291PVA    H9549459   1.204   2.947   3.933 -5.9111 -1.2984  1.7079
  291PVA    H9649460   1.126   3.093   3.957  3.9778 -1.1602  2.8039
  291PVA    C4949461   1.022   2.991   3.801  0.7621 -0.9473 -0.3514
  291PVA    H9749462   1.034   2.896   3.746  2.9954  1.2606 -4.1108
  291PVA    H9849463   1.016   3.062   3.718 -0.7867 -0.3683  0.2332
  291PVA    C5049464   0.893   3.010   3.897  0.1330 -0.1327  0.8938
  291PVA    H9949465   0.906   2.948   3.986 -2.8516 -6.5252 -2.4848
  291PVA    O1749466   0.882   3.146   3.941 -0.6246  0.1071 -0.2032
  291PVA   H10049467   0.788   3.158   3.962 -0.6526 -1.9695  1.1202
  291PVA    C5149468   0.754   2.991   3.838  1.1430  0.2569  2.3194
  291PVA   H10149469   0.722   3.056   3.756  1.4672  0.5648  2.4308
  291PVA   H10249470   0.762   2.891   3.794  2.3641  0.7201  1.4389
  292PVA     C149471   0.153   1.131   3.615  0.3372 -1.0693 -0.2936
  292PVA     H149472   0.206   1.191   3.540  0.0943 -0.0546  0.3383
  292PVA     H249473   0.205   1.148   3.710 -1.5344  2.9182  0.2109
  292PVA     C249474   0.174   0.973   3.560  1.3733 -1.3645 -0.7495
  292PVA     H349475   0.277   0.965   3.524  1.7617  0.1661 -0.0581
  292PVA     O149476   0.203   0.885   3.673 -0.0159  0.0843  0.1881
  292PVA     H449477   0.252   0.939   3.737 -1.8545 -0.0547  1.8280
  292PVA     C349478   0.102   0.894   3.451 -0.1277 -0.4876  1.2204
  292PVA     H549479   0.147   0.910   3.352 -2.6817  0.8738  0.1987
  292PVA     H649480   0.010   0.950   3.433  1.6353  1.6923 -2.2931
  292PVA     C449481   0.083   0.740   3.442 -0.0348 -1.4761 -0.3119
  292PVA     H749482   0.155   0.685   3.380  2.5739  3.1077 -1.8098
  292PVA     H849483   0.096   0.707   3.546  1.3831  1.3967  0.5360
  292PVA     C549484   7.702   0.709   3.395  0.1538 -0.1495  1.0769
  292PVA     H949485   7.632   0.788   3.427  0.6818  0.6303  0.3636
  292PVA     O249486   7.698   0.708   3.257 -0.3948 -0.1871 -0.3298
  292PVA    H1049487   7.628   0.653   3.218 -1.4330 -0.1452  1.4213
  292PVA     C649488   7.633   0.579   3.451 -1.5885 -0.7367 -0.5999
  292PVA    H1149489   7.679   0.490   3.405  1.1332 -0.9927  2.2558
  292PVA    H1249490   7.641   0.568   3.560  1.3160 -0.3983 -0.6995
  292PVA     C749491   7.490   0.540   3.415 -0.3506  0.4751  0.7289
  292PVA    H1349492   7.467   0.563   3.310  1.9774 -1.9469 -0.4142
  292PVA    H1449493   7.409   0.575   3.481 -3.7658  0.6509 -3.1535
  292PVA     C849494   7.459   0.378   3.412 -0.2119 -0.5502 -0.2470
  292PVA    H1549495   7.548   0.338   3.462  0.3081  0.2487 -0.5076
  292PVA     O349496   7.440   0.330   3.280 -0.1923  0.2226  0.4719
  292PVA    H1649497   7.434   0.233   3.285  2.3971 -0.0922 -1.0210
  292PVA     C949498   7.315   0.348   3.489 -0.0063  0.2832  0.3663
  292PVA    H1749499   7.248   0.416   3.435  0.6077  0.7273  0.1431
  292PVA    H1849500   7.341   0.393   3.586  0.2595  2.1814 -0.5282
  292PVA    C1049501   7.263   0.202   3.501  0.0624  0.4035 -0.1454
  292PVA    H1949502   7.168   0.226   3.548  1.0350 -0.8031  2.6354
  292PVA    H2049503   7.249   0.139   3.412 -2.9678  1.9692 -0.9079
  292PVA    C1149504   7.328   0.097   3.601 -0.1475 -0.6249  0.5278
  292PVA    H2149505   7.340   0.122   3.707 -2.2401  2.8402  0.0994
  292PVA     O449506   7.456   0.075   3.549  0.0306  0.5905  0.0768
  292PVA    H2249507   7.531   0.058   3.609  1.4525  2.4312 -1.0727
  292PVA    C1249508   7.266   7.647   3.587  1.0302  0.8665 -0.3606
  292PVA    H2349509   7.228   7.644   3.485  2.3422  2.0457 -0.9159
  292PVA    H2449510   7.174   7.662   3.645 -0.9938 -1.1221 -2.8188
  292PVA    C1349511   7.357   7.521   3.639  0.3011  0.1960 -0.5083
  292PVA    H2549512   7.463   7.548   3.634  0.2547  0.5941  0.5254
  292PVA    H2649513   7.332   7.514   3.745  1.0251 -2.2773 -0.4363
  292PVA    C1449514   7.326   7.392   3.567  0.6460 -0.8189 -0.5697
  292PVA    H2749515   7.271   7.431   3.481 -4.2269 -0.5337  2.2693
  292PVA     O549516   7.219   7.323   3.632 -0.5372  0.5205 -0.1396
  292PVA    H2849517   7.199   7.246   3.577 -0.7180  2.7539 -3.4891
  292PVA    C1549518   7.450   7.299   3.518  0.4801  0.2162  0.5652
  292PVA    H2949519   7.495   7.227   3.588 -3.1052 -3.0462 -0.1772
  292PVA    H3049520   7.529   7.376   3.517 -2.5833  3.7045  2.4446
  292PVA    C1649521   7.436   7.219   3.382 -0.4413 -0.5156  0.0437
  292PVA    H3149522   7.359   7.144   3.404 -0.0262 -1.1305 -0.5317
  292PVA    H3249523   7.392   7.268   3.294  1.5512 -2.0933 -1.9609
  292PVA    C1749524   7.557   7.167   3.304  1.0753  0.2000  0.1686
  292PVA    H3349525   7.650   7.220   3.326  1.6866 -0.4188 -0.8834
  292PVA     O649526   7.575   7.032   3.350  0.1678  0.4348 -0.6649
  292PVA    H3449527   7.585   7.038   3.447  1.4503  0.7021 -0.8035
  292PVA    C1849528   7.528   7.159   3.138  0.8531  0.4372 -1.0359
  292PVA    H3549529   7.619   7.107   3.105  0.4905 -2.1838  1.6436
  292PVA    H3649530   7.451   7.082   3.126  1.4303 -1.0604  3.1902
  292PVA    C1949531   7.490   7.283   3.048  0.3034  0.1574 -0.4994
  292PVA    H3749532   7.578   7.346   3.062  0.7097 -0.2621 -1.1650
  292PVA    H3849533   7.410   7.341   3.096  2.1908  2.1636  0.3752
  292PVA    C2049534   7.458   7.280   2.892  0.2125  0.1692 -0.1796
  292PVA    H3949535   7.546   7.309   2.834  2.4444 -2.3497  1.6973
  292PVA     O749536   7.440   7.146   2.843  0.3092 -0.5117  0.5709
  292PVA    H4049537   7.479   7.146   2.753 -0.8150  0.5432  0.0449
  292PVA    C2149538   7.327   7.364   2.846 -0.3214  1.2872 -0.7066
  292PVA    H4149539   7.231   7.317   2.871 -0.3130  1.1039 -1.0083
  292PVA    H4249540   7.312   7.362   2.737 -0.2574  3.3985 -0.7945
  292PVA    C2249541   7.305   7.529   2.870  1.4962 -0.9269 -0.2366
  292PVA    H4349542   7.320   7.561   2.767 -1.1390 -2.5451 -1.2205
  292PVA    H4449543   7.369   7.588   2.937  0.2675 -1.6370  1.6544
  292PVA    C2349544   7.152   7.577   2.902  0.1403 -0.7010 -0.5259
  292PVA    H4549545   7.110   7.590   2.802  2.0510 -2.6066 -1.6554
  292PVA     O849546   7.065   7.486   2.960  0.0210  1.1242  0.0944
  292PVA    H4649547   6.984   7.535   2.980  0.1807  0.4855  2.5624
  292PVA    C2449548   7.146   0.029   2.979 -0.9393 -0.8593 -1.5456
  292PVA    H4749549   7.227   0.040   3.052 -2.3274 -1.8953  0.2356
  292PVA    H4849550   7.169   0.113   2.912 -1.6894  1.5821  1.0566
  292PVA    C2549551   7.010   0.088   3.050  0.5050 -0.4834 -0.9702
  292PVA    H4949552   6.961   0.003   3.099 -0.8755 -0.0896 -1.6169
  292PVA    H5049553   6.937   0.128   2.979  0.2237  0.6442 -0.0757
  292PVA    C2649554   7.019   0.190   3.171 -0.9599 -0.1594  0.4647
  292PVA    H5149555   6.983   0.136   3.259  1.3031  0.7787  2.0685
  292PVA     O949556   7.146   0.244   3.200  0.1544  0.5435  0.1989
  292PVA    H5249557   7.145   0.274   3.292  4.8865  3.3888 -0.3254
  292PVA    C2749558   6.924   0.315   3.149 -0.0416 -0.4871 -1.3905
  292PVA    H5349559   6.956   0.383   3.068 -0.4136  1.2434 -0.1387
  292PVA    H5449560   6.823   0.276   3.127 -0.7783  2.0818 -3.0556
  292PVA    C2849561   6.904   0.404   3.279 -0.7795  0.2074 -0.3222
  292PVA    H5549562   7.001   0.445   3.309 -0.0789 -0.1291 -2.0127
  292PVA    H5649563   6.871   0.323   3.345  2.6262 -1.7496 -0.8177
  292PVA    C2949564   6.811   0.524   3.285  0.6515  0.0794 -0.8991
  292PVA    H5749565   6.862   0.602   3.229 -0.1735  0.5177 -1.0643
  292PVA    O1049566   6.693   0.472   3.245  0.3709  0.5053  0.7639
  292PVA    H5849567   6.626   0.534   3.278 -0.8347 -0.3718  0.0245
  292PVA    C3049568   6.789   0.569   3.431  0.4717  0.0219 -0.3467
  292PVA    H5949569   6.748   0.499   3.504  1.7411 -0.1592  0.2168
  292PVA    H6049570   6.897   0.579   3.450  1.8702 -4.7150 -3.8754
  292PVA    C3149571   6.720   0.713   3.454 -0.6888 -0.5729 -0.2860
  292PVA    H6149572   6.610   0.707   3.448 -0.8948 -1.8245  2.9487
  292PVA    H6249573   6.767   0.784   3.385 -0.7140  2.4222  2.5240
  292PVA    C3249574   6.753   0.759   3.600 -0.3926  0.2431  0.2170
  292PVA    H6349575   6.826   0.683   3.632 -2.1829 -2.7229 -2.1508
  292PVA    O1149576   6.639   0.733   3.681 -0.9521  0.2026  0.6228
  292PVA    H6449577   6.569   0.767   3.622  0.3540 -0.1167 -1.2077
  292PVA    C3349578   6.796   0.904   3.618  0.1157 -0.2459 -0.3230
  292PVA    H6549579   6.702   0.960   3.628  0.4169  0.0765  0.8673
  292PVA    H6649580   6.843   0.935   3.524  0.6707 -0.9424 -0.2902
  292PVA    C3449581   6.888   0.967   3.732  0.6620 -0.7264  0.8404
  292PVA    H6749582   6.840   0.942   3.828 -3.4611 -1.5810 -1.2041
  292PVA    H6849583   6.987   0.921   3.724 -0.5918 -3.3426 -1.8428
  292PVA    C3549584   6.905   1.119   3.711  0.0111 -0.7172  0.2194
  292PVA    H6949585   6.821   1.169   3.759 -0.5978 -1.2378 -0.2915
  292PVA    O1249586   6.901   1.165   3.575 -0.7077 -0.6756 -0.5328
  292PVA    H7049587   6.808   1.194   3.567 -0.5262  1.8066  3.4895
  292PVA    C3649588   7.032   1.182   3.781 -0.0302 -0.4908  0.2700
  292PVA    H7149589   7.043   1.145   3.883 -2.7649 -2.6960 -0.1140
  292PVA    H7249590   7.115   1.126   3.734  0.2566 -0.4807  0.7619
  292PVA    C3749591   7.025   1.344   3.770  0.4308 -0.3798  0.5118
  292PVA    H7349592   6.954   1.377   3.847  0.0112 -1.0152  0.4104
  292PVA    H7449593   6.993   1.376   3.670 -1.9080  4.0833  2.3999
  292PVA    C3849594   7.160   1.437   3.785 -0.6851  1.0043 -0.7240
  292PVA    H7549595   7.222   1.420   3.695  1.1276  0.5729  0.5478
  292PVA    O1349596   7.233   1.406   3.905  0.7577 -0.0521 -0.6501
  292PVA    H7649597   7.256   1.494   3.939 -0.3734  0.1314 -0.2909
  292PVA    C3949598   7.132   1.594   3.798 -0.8819  0.6077  0.3145
  292PVA    H7749599   7.089   1.624   3.894 -0.4261  0.7150  0.4850
  292PVA    H7849600   7.058   1.613   3.719  1.2759  0.6967 -1.7905
  292PVA    C4049601   7.260   1.688   3.773 -0.0246  0.8110 -0.4671
  292PVA    H7949602   7.354   1.640   3.805  0.4150  3.3213  2.4175
  292PVA    H8049603   7.282   1.709   3.668  0.1164 -0.7222 -0.7790
  292PVA    C4149604   7.263   1.833   3.844  0.4113 -0.7749  0.0197
  292PVA    H8149605   7.170   1.886   3.820  1.3473  1.2736  0.6635
  292PVA    O1449606   7.295   1.808   3.979  0.7701 -0.6527 -0.2783
  292PVA    H8249607   7.387   1.777   3.976  1.5751  1.0442  2.6083
  292PVA    C4249608   7.383   1.934   3.802  1.0331  0.6781 -0.4127
  292PVA    H8349609   7.484   1.890   3.795  0.5581 -0.1661 -4.4792
  292PVA    H8449610   7.368   1.971   3.700  4.1342 -1.3404 -1.7416
  292PVA    C4349611   7.390   2.069   3.893  0.4266  0.1532 -0.3193
  292PVA    H8549612   7.290   2.110   3.907  0.9130  1.5229 -0.7341
  292PVA    H8649613   7.414   2.038   3.995 -1.3030  1.8541  0.6592
  292PVA    C4449614   7.494   2.174   3.834  0.3464 -0.5991 -0.5952
  292PVA    H8749615   7.592   2.125   3.842 -0.9544 -4.4194 -4.5511
  292PVA    O1549616   7.470   2.213   3.704  0.1871  0.3833  1.1727
  292PVA    H8849617   7.517   2.142   3.658 -1.3476 -0.6156  1.0526
  292PVA    C4549618   7.512   2.301   3.923 -0.7968  0.2168 -0.3208
  292PVA    H8949619   7.542   2.273   4.025 -2.3497 -1.4399 -0.2643
  292PVA    H9049620   7.412   2.342   3.940 -2.9023 -4.4717  0.3302
  292PVA    C4649621   7.621   2.408   3.870  0.0146  1.8196 -0.6981
  292PVA    H9149622   7.715   2.358   3.847 -1.2458 -0.3631 -1.3665
  292PVA    H9249623   7.575   2.454   3.782  0.1993  5.2871  0.8596
  292PVA    C4749624   7.655   2.525   3.962 -0.4503 -0.3548  0.1650
  292PVA    H9349625   7.569   2.593   3.969 -1.3403 -1.2062 -1.7922
  292PVA    O1649626   7.672   2.486   4.095  0.0877  0.3363 -0.5179
  292PVA    H9449627   7.707   2.396   4.082 -1.0670  0.1079 -2.6813
  292PVA    C4849628   0.005   2.607   3.902  0.8273 -0.5523 -0.0436
  292PVA    H9549629   7.736   2.675   3.823  0.4905  2.9063  2.7958
  292PVA    H9649630   0.084   2.552   3.850  2.0475 -0.0637  1.2110
  292PVA    C4949631   0.084   2.710   3.995 -0.0366  0.7703  0.3241
  292PVA    H9749632   0.022   2.760   4.069  1.1926  2.4444  0.2735
  292PVA    H9849633   0.131   2.642   4.067 -3.0536 -1.2952  0.5317
  292PVA    C5049634   0.179   2.811   3.912  0.5420  0.7930 -0.4577
  292PVA    H9949635   0.243   2.746   3.850 -1.5025 -1.2899 -0.5203
  292PVA    O1749636   0.104   2.911   3.838  1.2753 -0.2299 -0.0878
  292PVA   H10049637   0.031   2.930   3.900  1.9799  2.3757  0.0607
  292PVA    C5149638   0.272   2.890   4.021 -0.5179 -0.2303  0.4571
  292PVA   H10149639   0.324   2.826   4.093 -1.0532  1.3669  2.3654
  292PVA   H10249640   0.203   2.956   4.076  1.8644  0.2371  3.1086
  293PVA     C149641   7.624   1.571   3.621  0.0842  0.6982  0.2306
  293PVA     H149642   7.634   1.524   3.523  0.9915 -0.8665  1.0330
  293PVA     H249643   7.520   1.588   3.651  0.5250  0.2739  2.1235
  293PVA     C249644   7.708   1.699   3.605 -0.8254  0.6708 -0.4062
  293PVA     H349645   0.027   1.672   3.540 -0.1843  4.2575 -1.3344
  293PVA     O149646   7.731   1.772   3.724  1.1383 -0.5614  0.3114
  293PVA     H449647   7.723   1.865   3.697 -2.3396 -0.8993 -0.2635
  293PVA     C349648   7.631   1.802   3.519  1.0140 -1.3964  0.5134
  293PVA     H549649   7.549   1.843   3.581  0.9031  0.3348 -0.6823
  293PVA     H649650   7.563   1.756   3.447 -3.3674  3.0013  1.2401
  293PVA     C449651   7.726   1.910   3.453  0.7361  0.0026  0.4816
  293PVA     H749652   0.031   1.950   3.527  2.9551 -2.0222 -0.3668
  293PVA     H849653   0.029   1.871   3.376 -0.7125  0.1420 -0.9324
  293PVA     C549654   7.671   2.040   3.383  0.0051 -0.4583 -0.0711
  293PVA     H949655   7.586   1.991   3.333  1.7212 -1.9910 -1.6525
  293PVA     O249656   7.641   2.115   3.494 -0.4198  0.3432 -0.0812
  293PVA    H1049657   7.593   2.192   3.459 -2.3016 -0.7682 -0.1282
  293PVA     C649658   7.756   2.117   3.276 -0.9179  0.5225  0.2668
  293PVA    H1149659   0.050   2.177   3.346 -3.0143  2.6042  0.3962
  293PVA    H1249660   0.047   2.050   3.211  0.4519  1.5754  0.3146
  293PVA     C749661   7.683   2.228   3.183  0.8151  0.7928 -0.1971
  293PVA    H1349662   7.627   2.296   3.248 -0.1596  2.7673 -2.9314
  293PVA    H1449663   7.615   2.177   3.114 -0.0246 -0.9255  1.8016
  293PVA     C849664   0.009   2.332   3.098 -0.7662 -0.5207  0.4015
  293PVA    H1549665   0.108   2.332   3.144 -0.1886 -0.5678 -0.8214
  293PVA     O349666   0.021   2.277   2.972  0.2748 -0.1643  0.4640
  293PVA    H1649667   0.085   2.328   2.919  0.5463 -1.0413 -0.0822
  293PVA     C949668   7.726   2.485   3.052 -0.8178 -0.3819  0.2322
  293PVA    H1749669   7.677   2.540   3.134 -0.3600  3.0443 -1.6064
  293PVA    H1849670   7.642   2.459   2.986 -1.5481 -0.9075  1.3281
  293PVA    C1049671   0.083   2.554   2.981 -0.5847 -0.5860  0.1562
  293PVA    H1949672   0.077   2.532   2.874  3.3348  0.5317 -0.4246
  293PVA    H2049673   0.178   2.522   3.025 -1.0461  2.4375  3.9232
  293PVA    C1149674   0.082   2.716   2.999 -0.8576  0.2650  0.6389
  293PVA    H2149675   0.054   2.755   3.098  1.9539  2.0732  0.8367
  293PVA     O449676   7.751   2.762   2.900 -0.2951  0.0166  1.2109
  293PVA    H2249677   7.659   2.753   2.929 -0.5023  0.6572  0.7767
  293PVA    C1249678   0.231   2.764   2.956  0.2405 -0.0662 -0.6643
  293PVA    H2349679   0.310   2.717   3.016  0.2735  0.4106 -0.3285
  293PVA    H2449680   0.240   2.742   2.849  1.8649 -0.5646 -0.4568
  293PVA    C1349681   0.258   2.920   2.958  0.7024  0.4703  0.6567
  293PVA    H2549682   0.253   2.974   3.054  0.7967  1.5551  0.0611
  293PVA    H2649683   0.174   2.963   2.901  1.1032  2.0137  1.1792
  293PVA    C1449684   0.391   2.971   2.899 -0.5197 -0.3491 -0.2133
  293PVA    H2749685   0.414   2.901   2.818 -1.0002  3.4614 -4.0270
  293PVA     O549686   0.511   2.965   2.977 -0.3088 -0.3644  0.0301
  293PVA    H2849687   0.574   3.022   2.930  0.5786 -2.8599 -2.0915
  293PVA    C1549688   0.393   3.115   2.838  0.4071 -0.5201 -0.1292
  293PVA    H2949689   0.397   3.184   2.923  4.4966  2.3947 -2.3434
  293PVA    H3049690   0.312   3.140   2.769  1.5780  1.3510 -0.9037
  293PVA    C1649691   0.513   3.156   2.745 -0.0418  0.1293 -0.6489
  293PVA    H3149692   0.607   3.105   2.767  0.5424  1.9713  1.4060
  293PVA    H3249693   0.490   3.122   2.643 -0.9235  0.6194 -0.6228
  293PVA    C1749694   0.529   3.308   2.735 -0.7133  1.0387 -0.2818
  293PVA    H3349695   0.442   3.350   2.682 -0.7989  0.1129 -0.9067
  293PVA     O649696   0.536   3.368   2.861 -0.2962 -0.7838 -0.0261
  293PVA    H3449697   0.629   3.364   2.888  0.4034  1.9011 -1.5972
  293PVA    C1849698   0.661   3.356   2.669 -0.3463 -0.3068  0.1117
  293PVA    H3549699   0.743   3.313   2.728 -0.1132 -0.0834 -0.0472
  293PVA    H3649700   0.655   3.310   2.569  4.3294 -0.1758 -0.4506
  293PVA    C1949701   0.665   3.508   2.618 -0.7039  0.7587  0.7687
  293PVA    H3749702   0.610   3.572   2.688  0.8933  0.8984  1.9505
  293PVA    H3849703   0.606   3.526   2.527 -0.1826  3.2910  0.8638
  293PVA    C2049704   0.801   3.582   2.594 -0.3744  0.3297 -1.1065
  293PVA    H3949705   0.860   3.577   2.686  0.3428 -1.5274 -1.6210
  293PVA     O749706   0.876   3.487   2.513 -0.4439  0.0101 -0.4609
  293PVA    H4049707   0.864   3.405   2.563 -2.3714  1.5753  1.8969
  293PVA    C2149708   0.803   3.734   2.557  0.8440  0.3578 -1.0363
  293PVA    H4149709   0.741   3.778   2.636 -0.8703 -3.0019 -0.3139
  293PVA    H4249710   0.746   3.741   2.464 -2.3811  4.0718  0.8889
  293PVA    C2249711   0.939   3.810   2.532  0.4203  0.3647 -0.8187
  293PVA    H4349712   1.012   3.795   2.613  0.8542  1.2027 -1.0379
  293PVA    H4449713   0.971   3.761   2.440 -3.5896  0.9406 -2.7591
  293PVA    C2349714   0.923   3.968   2.501  0.4204  0.3269  0.5959
  293PVA    H4549715   0.904   4.017   2.597 -1.0486  1.5037 -0.2482
  293PVA     O849716   0.802   3.995   2.429  0.2112  0.1954  0.1133
  293PVA    H4649717   0.823   4.090   2.420  0.2877  0.6154  3.5159
  293PVA    C2449718   1.037   4.039   2.431 -0.6713 -0.8788  0.4178
  293PVA    H4749719   1.120   4.010   2.496 -0.6466 -3.7006 -0.6943
  293PVA    H4849720   1.061   3.986   2.338 -1.0879 -0.6362  0.1654
  293PVA    C2549721   1.023   4.197   2.391  0.6686 -0.0531  0.4458
  293PVA    H4949722   0.992   4.262   2.473  0.6966 -0.0797  0.4778
  293PVA    H5049723   0.947   4.209   2.314  0.4221 -0.4937  0.6131
  293PVA    C2649724   1.157   4.257   2.327 -0.4973 -0.5076 -1.1419
  293PVA    H5149725   1.228   4.280   2.407  0.5808 -3.5002 -1.0919
  293PVA     O949726   1.220   4.171   2.237 -0.4275 -0.2845  0.0888
  293PVA    H5249727   1.255   4.099   2.293  1.2680  0.0897 -0.4363
  293PVA    C2749728   1.126   4.397   2.247  0.6479  0.1147  0.5286
  293PVA    H5349729   1.067   4.466   2.309 -0.1365  0.7431 -0.8791
  293PVA    H5449730   1.053   4.367   2.172  0.7669 -0.4320  0.6260
  293PVA    C2849731   1.244   4.471   2.175  0.4381  0.8042  0.0729
  293PVA    H5549732   1.293   4.528   2.254  1.1452 -1.1973  1.1607
  293PVA    H5649733   1.312   4.405   2.120 -3.1659  0.0204 -3.9952
  293PVA    C2949734   1.191   4.574   2.064  0.4853 -0.0060 -0.3932
  293PVA    H5749735   1.124   4.518   1.997 -3.1318 -0.1033  2.9700
  293PVA    O1049736   1.102   4.672   2.113 -0.9367  0.1849  0.4533
  293PVA    H5849737   1.125   4.709   2.200 -2.1920 -0.8862  1.2772
  293PVA    C3049738   1.311   4.644   1.980  0.3740  0.1225 -1.0879
  293PVA    H5949739   1.381   4.684   2.055  0.1258  0.0404 -0.8076
  293PVA    H6049740   1.364   4.559   1.936 -0.7227 -0.3083 -1.6059
  293PVA    C3149741   1.287   4.751   1.868  0.6362 -0.4877 -1.4548
  293PVA    H6149742   1.334   4.842   1.908 -1.7865  0.8493 -1.4173
  293PVA    H6249743   1.189   4.800   1.871  2.4426  4.3341 -5.6843
  293PVA    C3249744   1.337   4.731   1.724 -0.9209  0.0918  0.5825
  293PVA    H6349745   1.310   4.636   1.678 -0.4244 -0.1238  0.7269
  293PVA    O1149746   1.481   4.719   1.748  0.0291 -0.0306  0.5240
  293PVA    H6449747   1.515   4.643   1.697  1.6472 -0.1165  1.6766
  293PVA    C3349748   1.282   4.836   1.620 -1.0918 -0.2266 -0.2171
  293PVA    H6549749   1.350   4.922   1.624  0.1658 -1.2052 -0.0480
  293PVA    H6649750   1.184   4.876   1.648 -4.1332 -4.3594 -3.5339
  293PVA    C3449751   1.289   4.786   1.467  0.7703  0.8827 -0.9579
  293PVA    H6749752   1.383   4.730   1.463 -0.3926 -1.5815  1.9986
  293PVA    H6849753   1.227   4.696   1.456  2.2047 -0.7829  2.6986
  293PVA    C3549754   1.262   4.902   1.360  0.0201  0.1432 -0.4326
  293PVA    H6949755   1.159   4.931   1.381 -0.5411 -1.6829 -0.4831
  293PVA    O1249756   1.364   4.997   1.380 -0.9598 -0.3928 -1.0674
  293PVA    H7049757   1.320   5.080   1.407  4.5609  2.0692  2.1906
  293PVA    C3649758   1.244   4.852   1.208 -1.2919  0.3891 -0.0683
  293PVA    H7149759   1.341   4.869   1.160 -1.2841 -3.0984 -1.5821
  293PVA    H7249760   1.220   4.745   1.199 -0.0545  0.2083 -1.8496
  293PVA    C3749761   1.126   4.912   1.117 -0.2737 -0.1509 -0.3460
  293PVA    H7349762   1.138   5.022   1.117  1.9088 -0.3167 -2.2929
  293PVA    H7449763   1.034   4.911   1.177  0.1156  0.9278  0.3175
  293PVA    C3849764   1.123   4.884   0.961 -0.9754 -0.1592  0.1278
  293PVA    H7549765   1.131   4.986   0.921 -2.2804  1.1629  2.8814
  293PVA    O1349766   1.236   4.810   0.923 -0.7261 -0.0298  0.2729
  293PVA    H7649767   1.312   4.868   0.939 -0.9995  1.4360 -2.9462
  293PVA    C3949768   1.005   4.823   0.888 -1.0170 -0.6441 -0.0712
  293PVA    H7749769   0.939   4.775   0.961  0.6037 -2.0354  0.5354
  293PVA    H7849770   1.038   4.734   0.832 -0.1372 -2.2983  2.8609
  293PVA    C4049771   0.922   4.917   0.788 -0.5310  0.3230  0.2860
  293PVA    H7949772   0.894   5.012   0.835  0.6031  0.1452  1.3630
  293PVA    H8049773   0.994   4.955   0.714  2.3060 -1.4843  1.9427
  293PVA    C4149774   0.798   4.852   0.721  0.0185 -0.8606 -0.3425
  293PVA    H8149775   0.830   4.821   0.621 -4.2446 -2.4871 -1.4222
  293PVA    O1449776   0.755   4.741   0.803  0.1936 -1.0590 -0.7324
  293PVA    H8249777   0.731   4.676   0.735 -1.2206 -0.8838 -0.4232
  293PVA    C4249778   0.676   4.938   0.687  0.2549 -0.5013  0.9647
  293PVA    H8349779   0.599   4.915   0.762  0.8972  0.4415  1.9568
  293PVA    H8449780   0.696   5.044   0.709 -2.2477  0.7457 -2.0205
  293PVA    C4349781   0.614   4.940   0.539 -0.0882  0.5478  0.3400
  293PVA    H8549782   0.598   4.838   0.501  0.2841  0.9953 -1.0946
  293PVA    H8649783   0.681   4.990   0.468  1.2919 -2.0222 -0.2858
  293PVA    C4449784   0.473   4.996   0.543  0.1799  0.1020 -1.0892
  293PVA    H8749785   0.455   5.084   0.605 -2.8130  0.2012 -1.9732
  293PVA    O1549786   0.385   4.892   0.580 -0.5983 -0.0436 -0.8424
  293PVA    H8849787   0.429   4.846   0.654 -3.0783  1.2015  1.5616
  293PVA    C4549788   0.437   5.045   0.395  1.5657 -0.6604  0.2103
  293PVA    H8949789   0.478   4.986   0.312 -0.6564  1.5629 -2.7167
  293PVA    H9049790   0.476   5.145   0.369 -0.0834  0.2959  1.1802
  293PVA    C4649791   0.275   5.048   0.366 -0.1220  0.8062 -0.3050
  293PVA    H9149792   0.245   4.948   0.332  2.3450 -1.3496  3.1513
  293PVA    H9249793   0.224   5.060   0.463  4.4486 -0.6000  2.6043
  293PVA    C4749794   0.217   5.161   0.273 -0.2392 -0.0843 -0.4913
  293PVA    H9349795   0.259   5.254   0.313  1.1414 -0.4508 -1.0388
  293PVA    O1649796   0.265   5.133   0.141  0.4763  0.1350 -0.2308
  293PVA    H9449797   0.245   5.044   0.107  0.8079  0.2533 -0.7451
  293PVA    C4849798   0.057   5.160   0.263  0.4686  0.1535  0.8564
  293PVA    H9549799   0.026   5.071   0.207  2.4372 -0.8718  1.2921
  293PVA    H9649800   0.017   5.135   0.362 -2.3723 -0.5468 -0.3676
  293PVA    C4949801   7.749   5.289   0.204 -0.4626 -0.4075 -0.3513
  293PVA    H9749802   7.675   5.316   0.281  2.2836  2.0335  1.6632
  293PVA    H9849803   0.060   5.368   0.206  2.0644 -2.7305  1.1753
  293PVA    C5049804   7.658   5.301   0.063 -0.9071  0.1850 -0.5096
  293PVA    H9949805   7.615   5.202   0.046  0.5971 -0.5803 -0.0896
  293PVA    O1749806   7.754   5.345   8.061 -0.2007 -0.4253 -0.3223
  293PVA   H10049807   0.069   5.327   0.015 -0.0025 -4.4901 -1.7680
  293PVA    C5149808   7.525   5.391   0.069 -0.5012 -1.2098  0.1087
  293PVA   H10149809   7.448   5.328   0.116 -0.4609 -0.6400  0.9597
  293PVA   H10249810   7.524   5.480   0.133 -2.9732 -1.7549  0.9418
  294PVA     C149811   0.999   3.720   4.562 -0.2481 -0.2717  0.1898
  294PVA     H149812   1.059   3.629   4.552 -1.4060 -1.1687  1.0276
  294PVA     H249813   0.925   3.720   4.643  0.6991  4.3300  1.3275
  294PVA     C249814   1.075   3.843   4.600 -0.9541 -0.4578 -0.4267
  294PVA     H349815   1.008   3.928   4.618 -1.7812 -1.4621  1.6915
  294PVA     O149816   1.140   3.913   4.495 -0.2023 -0.5083  0.8597
  294PVA     H449817   1.225   3.866   4.497 -1.2520 -2.4899  2.4199
  294PVA     C349818   1.181   3.830   4.724  0.1389 -1.0033  0.1653
  294PVA     H549819   1.125   3.871   4.809  1.3453  2.0528 -0.3764
  294PVA     H649820   1.189   3.722   4.740 -1.8919 -1.4740 -1.4894
  294PVA     C449821   1.324   3.904   4.721 -0.1239 -0.5171 -1.1304
  294PVA     H749822   1.380   3.856   4.639  1.4621 -0.7331  0.0417
  294PVA     H849823   1.303   4.011   4.715 -3.2902 -0.7815  2.1881
  294PVA     C549824   1.416   3.870   4.842  0.3865  0.3163 -0.9242
  294PVA     H949825   1.383   3.931   4.927 -3.3307  0.2817 -2.1574
  294PVA     O249826   1.415   3.728   4.871  0.2224  0.5156  0.7286
  294PVA    H1049827   1.447   3.674   4.798 -3.5658 -0.2442 -0.5892
  294PVA     C649828   1.574   3.900   4.837  0.8391  0.3342  0.7799
  294PVA    H1149829   1.624   3.874   4.743  4.7199  0.7666  2.5483
  294PVA    H1249830   1.592   4.008   4.826  1.4348  0.5451  3.1839
  294PVA     C749831   1.656   3.850   4.971 -1.2226  0.9965 -0.4292
  294PVA    H1349832   1.586   3.840   5.054  0.7071 -1.2524  1.0421
  294PVA    H1449833   1.668   3.742   4.954  0.6286  1.1060 -0.0278
  294PVA     C849834   1.796   3.924   5.023 -0.1300 -0.3855  1.2447
  294PVA    H1549835   1.788   4.020   5.074  0.2408 -1.3334  3.1669
  294PVA     O349836   1.889   3.946   4.908  0.9732 -0.0534  0.5132
  294PVA    H1649837   1.886   4.041   4.891 -1.0589 -0.2279 -0.3624
  294PVA     C949838   1.877   3.836   5.124 -0.0519 -0.5439  0.0057
  294PVA    H1749839   1.937   3.769   5.063  3.6462  0.5024  2.1954
  294PVA    H1849840   1.794   3.780   5.171  0.0294 -1.6329 -1.1182
  294PVA    C1049841   1.987   3.885   5.226  0.7457  1.0003  1.6711
  294PVA    H1949842   2.084   3.864   5.178 -0.1364  0.4381  0.0627
  294PVA    H2049843   1.996   3.990   5.195  0.3378  1.6968  3.7442
  294PVA    C1149844   1.999   3.862   5.381 -0.6412  0.9489  0.2303
  294PVA    H2149845   1.930   3.940   5.416  0.0490  4.6710 -5.2985
  294PVA     O449846   1.935   3.745   5.420  0.5842 -0.7037  0.0819
  294PVA    H2249847   2.000   3.678   5.393 -0.3386 -1.3134 -0.6988
  294PVA    C1249848   2.133   3.874   5.471 -0.1771  0.0807 -0.0692
  294PVA    H2349849   2.207   3.811   5.420  0.6360  0.9981 -0.0456
  294PVA    H2449850   2.181   3.972   5.462 -2.7738  1.2493 -3.5595
  294PVA    C1349851   2.139   3.846   5.628 -0.0744  0.4546  0.1060
  294PVA    H2549852   2.128   3.738   5.617 -2.7193  0.6595 -0.0824
  294PVA    H2649853   2.053   3.900   5.672 -0.5436 -0.5995  0.4993
  294PVA    C1449854   2.268   3.892   5.716  0.6493  0.2147  0.6421
  294PVA    H2749855   2.358   3.884   5.653 -0.8199  2.3854 -1.9239
  294PVA     O549856   2.259   4.032   5.723  0.0546  0.1476  1.5720
  294PVA    H2849857   2.168   4.056   5.747 -0.5626 -3.0951  3.0216
  294PVA    C1549858   2.291   3.812   5.852 -0.0917  0.2713  0.6337
  294PVA    H2949859   2.241   3.859   5.938 -1.6265 -2.5354  1.3766
  294PVA    H3049860   2.252   3.710   5.851  0.0234  0.2286  0.5751
  294PVA    C1649861   2.445   3.803   5.900 -0.2090 -0.4972  1.1757
  294PVA    H3149862   2.495   3.768   5.809 -0.7889 -3.3409  1.8515
  294PVA    H3249863   2.463   3.907   5.931  2.7901 -0.4005 -0.5569
  294PVA    C1749864   2.526   3.714   6.012  1.0292  0.2151 -0.3651
  294PVA    H3349865   2.630   3.715   5.977  0.2290  1.6994 -3.0276
  294PVA     O649866   2.489   3.582   5.998 -1.0617  0.0291  0.5478
  294PVA    H3449867   2.574   3.538   5.980 -1.2772  0.8058 -2.9313
  294PVA    C1849868   2.569   3.776   6.158  0.4949  1.5914  0.0621
  294PVA    H3549869   2.475   3.781   6.215  0.9400  0.9751  0.8822
  294PVA    H3649870   2.613   3.876   6.155  2.7302  0.6742  0.2376
  294PVA    C1949871   2.656   3.699   6.257  0.2996 -1.2003  0.4783
  294PVA    H3749872   2.720   3.639   6.191  1.4948  1.8160 -1.2919
  294PVA    H3849873   2.600   3.620   6.309 -0.4082  0.4777  2.3579
  294PVA    C2049874   2.768   3.761   6.353 -0.7418  0.9644 -0.0754
  294PVA    H3949875   2.797   3.852   6.300 -1.0781  0.9570 -0.2802
  294PVA     O749876   2.871   3.666   6.372  0.2344  0.7706 -0.1883
  294PVA    H4049877   2.944   3.707   6.422  1.3512 -1.0610 -0.2328
  294PVA    C2149878   2.737   3.825   6.491 -0.2324 -0.2230  0.0600
  294PVA    H4149879   2.769   3.929   6.502 -1.3274 -0.0273  1.9862
  294PVA    H4249880   2.629   3.830   6.510 -0.6118  0.3308 -2.0355
  294PVA    C2249881   2.782   3.755   6.628  1.0010 -1.5008  0.7858
  294PVA    H4349882   2.786   3.648   6.604 -3.3258 -1.0744 -3.6733
  294PVA    H4449883   2.887   3.782   6.642  1.0056 -0.6608 -0.6084
  294PVA    C2349884   2.725   3.800   6.767 -0.2009 -0.1285 -1.1703
  294PVA    H4549885   2.778   3.728   6.831 -3.0390 -1.6620 -0.4083
  294PVA     O849886   2.786   3.928   6.809 -0.0314  0.2260  0.3862
  294PVA    H4649887   2.745   4.013   6.785  1.7865  0.9771 -0.3101
  294PVA    C2449888   2.566   3.783   6.833 -0.0696  0.8601  0.4807
  294PVA    H4749889   2.489   3.757   6.760  1.6024 -1.8531 -0.4649
  294PVA    H4849890   2.557   3.680   6.868  0.0298  0.6736 -0.0349
  294PVA    C2549891   2.519   3.886   6.949 -0.1751 -0.7905 -1.3792
  294PVA    H4949892   2.551   3.986   6.918  0.4425 -0.0013  1.4882
  294PVA    H5049893   2.573   3.850   7.037 -3.8796  2.2021  2.5653
  294PVA    C2649894   2.369   3.900   7.010  0.1295  0.1856  0.6365
  294PVA    H5149895   2.364   3.834   7.098 -3.3401  1.3587  1.4959
  294PVA     O949896   2.262   3.852   6.922  0.3229  0.1934  0.5800
  294PVA    H5249897   2.273   3.764   6.882  0.4588  0.9645 -1.1737
  294PVA    C2749898   2.313   4.039   7.064 -1.0087  1.0933 -0.0658
  294PVA    H5349899   2.233   3.996   7.127  1.8038  0.1905  3.2528
  294PVA    H5449900   2.391   4.086   7.126 -0.1476 -2.4509  1.8774
  294PVA    C2849901   2.254   4.150   6.973  0.4661 -0.0942 -0.4070
  294PVA    H5549902   2.322   4.235   6.956  3.4437 -2.3520 -0.7321
  294PVA    H5649903   2.246   4.108   6.872 -1.5302  1.0697 -0.7830
  294PVA    C2949904   2.108   4.194   6.997 -0.3120 -0.0278  0.6444
  294PVA    H5749905   2.046   4.112   7.036 -0.2552 -1.3856 -1.9465
  294PVA    O1049906   2.055   4.215   6.863 -0.4735  1.0838 -0.2481
  294PVA    H5849907   1.962   4.238   6.846 -0.1206  1.3357 -2.0122
  294PVA    C3049908   2.074   4.331   7.071 -0.2881  0.0232  0.0945
  294PVA    H5949909   2.117   4.323   7.171 -2.0171 -5.1769  0.7060
  294PVA    H6049910   2.116   4.412   7.008  3.5068 -2.8539 -1.4834
  294PVA    C3149911   1.929   4.361   7.111  0.3911 -0.2623  0.1549
  294PVA    H6149912   1.914   4.260   7.152  1.2632  0.3603  2.1411
  294PVA    H6249913   1.867   4.382   7.023 -1.5580  3.3652  2.1621
  294PVA    C3249914   1.897   4.468   7.218  0.0946  0.3657 -0.4965
  294PVA    H6349915   1.964   4.463   7.305  1.4736  0.3745 -1.5393
  294PVA    O1149916   1.906   4.591   7.155  0.0083  0.1973  0.2282
  294PVA    H6449917   2.003   4.595   7.148 -0.0585  4.1293 -1.8652
  294PVA    C3349918   1.758   4.461   7.296 -0.3070  0.1875 -0.5565
  294PVA    H6549919   1.768   4.409   7.393  0.3626  1.5761  0.1520
  294PVA    H6649920   1.697   4.404   7.225 -0.8099  0.6332 -0.4898
  294PVA    C3449921   1.692   4.600   7.339 -0.6531 -0.5298  0.3894
  294PVA    H6749922   1.764   4.646   7.408 -1.0983 -3.4171  3.0146
  294PVA    H6849923   1.690   4.673   7.257  1.5040 -0.3891  0.4081
  294PVA    C3549924   1.550   4.597   7.405  0.4264  0.1609  0.1146
  294PVA    H6949925   1.503   4.504   7.370  0.6961  1.2100 -3.3717
  294PVA    O1249926   1.553   4.586   7.546  0.5641  0.2072 -0.3930
  294PVA    H7049927   1.468   4.552   7.579  1.3195 -0.8845  0.4725
  294PVA    C3649928   1.449   4.717   7.380 -0.2075  0.5141 -0.5325
  294PVA    H7149929   1.508   4.809   7.390 -3.1491  2.4715  0.1424
  294PVA    H7249930   1.440   4.722   7.271 -0.1877 -0.4561 -0.5850
  294PVA    C3749931   1.297   4.732   7.428 -1.0314  0.5216 -0.4597
  294PVA    H7349932   1.299   4.743   7.538 -0.5130  2.4029 -0.6234
  294PVA    H7449933   1.251   4.633   7.423  0.5269 -0.2419 -0.3407
  294PVA    C3849934   1.213   4.847   7.379 -0.9037 -0.0134  0.8882
  294PVA    H7549935   1.163   4.818   7.286 -0.3366  0.5272  0.4020
  294PVA    O1349936   1.297   4.954   7.320 -0.3157  0.1523  0.7087
  294PVA    H7649937   1.346   4.926   7.240 -0.0653  0.3631  0.7879
  294PVA    C3949938   1.110   4.921   7.477 -0.8424  0.1222 -0.2216
  294PVA    H7749939   1.159   4.982   7.554 -0.9291  0.0652 -0.1192
  294PVA    H7849940   1.054   4.839   7.525 -0.5232 -1.4642 -2.4205
  294PVA    C4049941   1.002   4.996   7.383  0.4842  0.2951 -0.6511
  294PVA    H7949942   1.045   5.069   7.314 -1.3045 -0.5487 -2.7929
  294PVA    H8049943   0.970   4.915   7.317  4.0026 -3.7496  2.0612
  294PVA    C4149944   0.871   5.040   7.446  0.6188 -0.8576  0.3426
  294PVA    H8149945   0.912   5.125   7.501 -1.2680  0.5865 -0.3783
  294PVA    O1449946   0.814   4.945   7.537  0.2208 -0.2809  0.2679
  294PVA    H8249947   0.879   4.886   7.579 -0.0795 -0.7569  0.0698
  294PVA    C4249948   0.768   5.082   7.332 -0.9814 -0.1562 -0.3323
  294PVA    H8349949   0.791   5.185   7.303 -2.0918 -0.3197 -2.0024
  294PVA    H8449950   0.800   5.046   7.233 -1.6271  1.8063 -1.3119
  294PVA    C4349951   0.616   5.058   7.363  0.8571 -0.0307 -0.2986
  294PVA    H8549952   0.618   5.068   7.472  0.5716 -2.8785  0.0537
  294PVA    H8649953   0.600   4.951   7.345 -1.2126 -0.3222  2.6289
  294PVA    C4449954   0.507   5.156   7.311  0.5641 -0.0421 -1.0318
  294PVA    H8749955   0.527   5.257   7.348  2.0900 -0.4329 -0.7033
  294PVA    O1549956   0.512   5.174   7.173 -0.1566  0.6337  1.0796
  294PVA    H8849957   0.425   5.210   7.150  0.4375 -0.0385 -3.0251
  294PVA    C4549958   0.364   5.097   7.367 -1.1819 -0.3650  0.5905
  294PVA    H8949959   0.379   4.999   7.414 -0.5581 -0.8346 -0.5323
  294PVA    H9049960   0.312   5.070   7.274 -2.2032  2.0581  0.3973
  294PVA    C4649961   0.270   5.196   7.454  0.0499  1.0973 -0.1725
  294PVA    H9149962   0.325   5.228   7.543  0.0298 -3.2555  1.6794
  294PVA    H9249963   0.241   5.264   7.374 -2.1342  2.0662  1.3210
  294PVA    C4749964   0.137   5.133   7.500 -0.3123  0.8018  1.2687
  294PVA    H9349965   0.096   5.079   7.413  0.1787  1.4217  0.6377
  294PVA    O1649966   0.181   5.042   7.608  0.1774 -0.0265 -1.0074
  294PVA    H9449967   0.183   4.952   7.571 -2.2986 -0.0902 -1.1334
  294PVA    C4849968   0.039   5.234   7.562 -0.3291 -0.1219  0.7324
  294PVA    H9549969   0.078   5.280   7.654 -1.6852  1.4555  0.5558
  294PVA    H9649970   0.031   5.314   7.488  2.3542  1.5067  2.0606
  294PVA    C4949971   7.652   5.204   7.609 -0.2400 -0.3971  0.9751
  294PVA    H9749972   7.651   5.165   7.712  4.1270 -1.0346  0.9302
  294PVA    H9849973   7.610   5.118   7.554 -0.1102  1.3295 -2.0231
  294PVA    C5049974   7.556   5.332   7.587  0.1865 -0.2178  0.8757
  294PVA    H9949975   7.547   5.346   7.479 -0.9696  0.4046  1.0380
  294PVA    O1749976   7.630   5.447   7.622  0.6317  0.2507  0.8210
  294PVA   H10049977   7.597   5.460   7.713  1.1184 -0.7318  1.1645
  294PVA    C5149978   7.405   5.328   7.655 -0.5626 -0.5555 -1.0339
  294PVA   H10149979   7.400   5.224   7.689  1.7307 -1.0114 -1.9210
  294PVA   H10249980   7.330   5.343   7.577  0.7835  1.3475 -2.0313
  295PVA     C149981   0.502   3.739   4.391 -0.4051  0.9837 -0.0465
  295PVA     H149982   0.467   3.803   4.472  0.0543  0.6152  0.4498
  295PVA     H249983   0.500   3.811   4.309 -6.7114 -0.6514 -1.8683
  295PVA     C249984   0.384   3.644   4.366  0.1561 -0.2175 -0.1160
  295PVA     H349985   0.433   3.566   4.306  1.4946  0.9069 -0.5390
  295PVA     O149986   0.365   3.571   4.486  0.3488  0.3870 -0.3553
  295PVA     H449987   0.290   3.616   4.528  1.7631  2.4504  0.1796
  295PVA     C349988   0.248   3.697   4.303  1.3411  0.2725  0.8227
  295PVA     H549989   0.255   3.780   4.232 -0.2500  0.4948  0.8851
  295PVA     H649990   0.208   3.739   4.397 -0.8588 -1.1940  0.6192
  295PVA     C449991   0.147   3.578   4.265  0.0605  0.3677 -0.0720
  295PVA     H749992   0.176   3.522   4.176  2.3255  1.9242 -0.4156
  295PVA     H849993   0.153   3.496   4.338  4.8038  1.4157  1.0859
  295PVA     C549994   0.001   3.621   4.252 -1.1145  0.3670 -0.2174
  295PVA     H949995   7.745   3.609   4.145 -2.1427 -0.1146  0.0257
  295PVA     O249996   7.745   3.755   4.274 -0.8541 -0.3840 -0.3101
  295PVA    H1049997   7.666   3.755   4.330  0.0271  0.2276  0.9966
  295PVA     C649998   7.664   3.517   4.326 -0.1683 -0.2312  0.4709
  295PVA    H1149999   7.705   3.459   4.410 -0.5932  0.8049  1.4232
  295PVA    H1250000   7.631   3.441   4.254  1.9603  0.8124 -1.7058
  295PVA     C750001   7.532   3.588   4.363  0.8600 -0.4125 -0.1871
  295PVA    H1350002   7.503   3.659   4.285  0.7709  3.8640  3.3118
  295PVA    H1450003   7.558   3.647   4.452  0.1918  0.1237 -0.3422
  295PVA     C850004   7.401   3.504   4.389  0.2095  1.0184 -0.5712
  295PVA    H1550005   7.408   3.494   4.498  1.2419 -3.5625 -0.8674
  295PVA     O350006   7.411   3.365   4.334 -0.3625 -0.8892 -0.3035
  295PVA    H1650007   7.319   3.333   4.342 -0.7850 -0.5895 -2.9121
  295PVA     C950008   7.262   3.558   4.360  1.3258  1.3049 -0.4631
  295PVA    H1750009   7.259   3.605   4.260 -0.4167 -4.0023 -3.2870
  295PVA    H1850010   7.233   3.635   4.433  2.1968  1.7963 -0.6099
  295PVA    C1050011   7.142   3.456   4.364 -0.0711  0.5077  0.2652
  295PVA    H1950012   7.150   3.363   4.306 -1.3368 -0.1635  1.1168
  295PVA    H2050013   7.138   3.412   4.465 -0.6572  0.7107  0.3334
  295PVA    C1150014   7.009   3.534   4.320 -1.0557 -1.1249  0.2726
  295PVA    H2150015   6.996   3.617   4.391 -1.2445 -3.5144  3.2010
  295PVA     O450016   7.032   3.594   4.188  0.2035 -0.3772 -0.4538
  295PVA    H2250017   7.064   3.523   4.130  1.7125 -1.7211  1.8538
  295PVA    C1250018   6.880   3.451   4.331  0.0237  0.7319  0.4989
  295PVA    H2350019   6.882   3.364   4.264 -0.1211  0.8710  0.3144
  295PVA    H2450020   6.862   3.391   4.422 -2.4427 -0.8100 -0.8645
  295PVA    C1350021   6.753   3.543   4.301 -0.9362  1.3308  0.3946
  295PVA    H2550022   6.795   3.628   4.246  0.2858 -1.1058 -2.7656
  295PVA    H2650023   6.726   3.585   4.399 -0.2185  1.0661  0.7110
  295PVA    C1450024   6.639   3.481   4.215 -0.4104 -0.4826 -0.0594
  295PVA    H2750025   6.677   3.480   4.112  2.0498  1.6430  0.7217
  295PVA     O550026   6.615   3.347   4.274  0.0771 -0.1730 -0.0484
  295PVA    H2850027   6.700   3.299   4.273 -0.1114 -0.5525 -1.6070
  295PVA    C1550028   6.504   3.564   4.225 -0.1094  0.5742  1.1240
  295PVA    H2950029   6.540   3.663   4.193  0.0050  0.5011  1.0251
  295PVA    H3050030   6.475   3.550   4.330  1.4028 -2.2283  1.2559
  295PVA    C1650031   6.391   3.527   4.124 -0.4596  0.1503  0.4369
  295PVA    H3150032   6.428   3.527   4.021 -4.0689 -3.1641 -1.1017
  295PVA    H3250033   6.362   3.424   4.145 -1.3400 -0.1549 -1.9865
  295PVA    C1750034   6.263   3.619   4.125 -0.2766  0.8269 -0.0610
  295PVA    H3350035   6.287   3.721   4.157  0.8468  0.8033 -0.7682
  295PVA     O650036   6.180   3.566   4.227  0.3939 -1.0446 -0.0405
  295PVA    H3450037   6.088   3.599   4.231  0.2140 -1.6736  1.4074
  295PVA    C1850038   6.181   3.603   3.985 -1.0794 -0.4042 -1.3633
  295PVA    H3550039   6.237   3.647   3.902 -1.2760  2.4499 -0.0941
  295PVA    H3650040   6.146   3.499   3.989 -1.5516 -0.2115  1.3793
  295PVA    C1950041   6.041   3.673   3.982  0.1333  0.3689 -0.3646
  295PVA    H3750042   6.050   3.781   4.001  1.2861  0.1625  0.3310
  295PVA    H3850043   5.967   3.651   4.059 -1.3693  0.0246 -1.8330
  295PVA    C2050044   5.976   3.659   3.840 -0.9189  1.7665 -0.0508
  295PVA    H3950045   6.041   3.703   3.763  0.4290 -0.2930 -0.1881
  295PVA     O750046   5.962   3.521   3.804 -0.5190 -0.9590 -0.9101
  295PVA    H4050047   5.973   3.507   3.708  1.4838 -2.5366 -0.5220
  295PVA    C2150048   5.834   3.714   3.835  0.8777  0.4742  0.1513
  295PVA    H4150049   5.775   3.642   3.893  2.1983 -0.9693 -0.2249
  295PVA    H4250050   5.826   3.807   3.893  0.1332  1.1352 -0.9683
  295PVA    C2250051   5.766   3.726   3.700  0.7920 -0.6331  0.4355
  295PVA    H4350052   5.820   3.791   3.630 -3.3491 -0.3432 -2.8768
  295PVA    H4450053   5.777   3.625   3.659 -0.9788 -2.4710  4.0651
  295PVA    C2350054   5.621   3.781   3.691  0.1950  0.6592  0.2767
  295PVA    H4550055   5.557   3.693   3.681  0.0575  0.8786 -0.9284
  295PVA     O850056   5.572   3.851   3.806 -0.4511 -0.3227 -0.2953
  295PVA    H4650057   5.573   3.790   3.882 -3.7776  2.3418  2.2447
  295PVA    C2450058   5.587   3.854   3.563 -0.4207  0.4188  0.0857
  295PVA    H4750059   5.627   3.951   3.594 -2.8206  0.9115  1.9213
  295PVA    H4850060   5.644   3.802   3.485  2.1293  0.8403  1.5715
  295PVA    C2550061   5.444   3.870   3.513 -0.0025  0.5934  0.0161
  295PVA    H4950062   5.408   3.918   3.605  2.6583  2.2146  0.3503
  295PVA    H5050063   5.398   3.774   3.490  3.2486 -0.8310 -1.2242
  295PVA    C2650064   5.420   3.968   3.386  0.9759 -0.2712 -0.9959
  295PVA    H5150065   5.456   4.072   3.392 -4.1558  2.0078 -3.7124
  295PVA     O950066   5.490   3.907   3.293  0.4965 -0.3521  0.0666
  295PVA    H5250067   5.523   3.978   3.235  1.8344 -0.5011  0.6138
  295PVA    C2750068   5.269   3.975   3.334  0.1166 -0.5816 -0.5636
  295PVA    H5350069   5.218   4.022   3.420  0.3364  1.1686 -1.3423
  295PVA    H5450070   5.291   4.054   3.262  2.5930 -1.2775 -0.6695
  295PVA    C2850071   5.187   3.865   3.263 -0.4753  0.0400 -0.5826
  295PVA    H5550072   5.257   3.830   3.187  4.4861  0.2909  3.3371
  295PVA    H5650073   5.186   3.779   3.332 -4.5313  0.7005  0.4312
  295PVA    C2950074   5.037   3.906   3.218  0.0284 -0.1942  0.2614
  295PVA    H5750075   5.044   4.002   3.164 -3.9771 -0.2256 -0.6219
  295PVA    O1050076   4.954   3.941   3.330 -0.1345  0.1058  1.2078
  295PVA    H5850077   4.883   3.999   3.297  0.9679 -0.1541 -1.9986
  295PVA    C3050078   4.956   3.796   3.134  0.2469 -0.6574 -0.4530
  295PVA    H5950079   4.989   3.800   3.030  2.2890 -1.2774  0.1430
  295PVA    H6050080   4.975   3.692   3.162 -4.0708 -1.9672 -1.5045
  295PVA    C3150081   4.797   3.825   3.129  0.0971 -0.5511  0.8233
  295PVA    H6150082   4.783   3.905   3.055  0.2501  0.8010  2.1943
  295PVA    H6250083   4.767   3.859   3.229  4.6498 -0.4952  2.4466
  295PVA    C3250084   4.693   3.710   3.106  0.3375  0.0065 -0.0425
  295PVA    H6350085   4.731   3.651   3.022  2.9029  0.2856  0.8210
  295PVA    O1150086   4.692   3.638   3.233 -0.8126 -0.1487  0.4447
  295PVA    H6450087   4.748   3.558   3.232 -2.0263 -1.0969 -2.6454
  295PVA    C3350088   4.555   3.768   3.053  0.4026  0.8644 -0.1908
  295PVA    H6550089   4.538   3.848   3.127 -2.4142 -1.2938  1.7088
  295PVA    H6650090   4.586   3.821   2.962  2.2525  0.5519  0.2132
  295PVA    C3450091   4.450   3.670   3.007 -0.1723  0.1054  0.0119
  295PVA    H6750092   4.472   3.626   2.909  2.1179 -2.8044  1.6881
  295PVA    H6850093   4.431   3.597   3.086  0.1944  0.1875  0.1754
  295PVA    C3550094   4.309   3.743   3.003 -0.3235 -1.0991 -0.7741
  295PVA    H6950095   4.299   3.834   3.064 -1.9348  0.4665 -3.1450
  295PVA    O1250096   4.297   3.801   2.872  0.3871  1.4843  0.2488
  295PVA    H7050097   4.305   3.727   2.810 -0.5568  2.0071 -0.5136
  295PVA    C3650098   4.166   3.668   3.018 -0.1999  1.4462 -1.3824
  295PVA    H7150099   4.143   3.620   2.922  0.2335 -0.0322 -0.7829
  295PVA    H7250100   4.108   3.760   3.027  1.4840  2.6693 -2.5082
  295PVA    C3750101   4.135   3.570   3.136  0.4582 -0.2704 -1.1800
  295PVA    H7350102   4.167   3.610   3.233 -0.9782 -0.6817 -0.5037
  295PVA    H7450103   4.178   3.473   3.108 -0.8700 -2.0650  2.3727
  295PVA    C3850104   3.982   3.542   3.150  0.5139  0.0631 -0.0119
  295PVA    H7550105   3.912   3.626   3.143 -1.1262 -1.2618  0.0203
  295PVA    O1350106   3.947   3.453   3.054  0.2470 -0.3211 -0.7295
  295PVA    H7650107   3.969   3.507   2.976  1.4580  1.0759  0.5259
  295PVA    C3950108   3.935   3.461   3.281 -0.5544 -0.3852  0.2362
  295PVA    H7750109   4.004   3.375   3.277 -0.5136 -0.4864  2.2427
  295PVA    H7850110   3.839   3.411   3.267  0.5306 -2.7951  0.8290
  295PVA    C4050111   3.939   3.533   3.412  1.3600  0.6158 -0.7741
  295PVA    H7950112   4.021   3.604   3.428 -2.4319  5.1649  1.1177
  295PVA    H8050113   3.855   3.604   3.415  2.0821  1.4652  0.4387
  295PVA    C4150114   3.939   3.457   3.556  0.3949  0.2805 -0.7022
  295PVA    H8150115   3.844   3.441   3.607  1.1104  0.9070  0.9056
  295PVA    O1450116   4.004   3.330   3.561 -0.6088 -0.6736  0.8941
  295PVA    H8250117   3.986   3.269   3.488  4.0012 -1.1371 -0.1770
  295PVA    C4250118   4.045   3.538   3.644 -0.3483 -0.8295  0.2087
  295PVA    H8350119   4.142   3.486   3.653 -0.7003 -1.6751 -0.6953
  295PVA    H8450120   4.079   3.636   3.609  1.3089 -1.6087 -0.4950
  295PVA    C4350121   3.988   3.544   3.795 -0.8687 -0.3799 -1.4966
  295PVA    H8550122   3.954   3.454   3.848 -1.0159  0.7144  0.3879
  295PVA    H8650123   3.905   3.613   3.818  1.9282  2.4360  1.0627
  295PVA    C4450124   4.106   3.607   3.889  1.1715 -0.6331 -0.6120
  295PVA    H8750125   4.191   3.546   3.859  1.0587  0.2897 -3.0490
  295PVA    O1550126   4.133   3.739   3.842  0.3880 -0.0871 -0.2073
  295PVA    H8850127   4.056   3.797   3.834 -2.5903 -3.8788 -2.8051
  295PVA    C4550128   4.087   3.616   4.052 -0.2190 -0.0225  0.0871
  295PVA    H8950129   4.104   3.511   4.077  0.9413  0.3978  1.1664
  295PVA    H9050130   3.986   3.643   4.085 -1.6046 -1.7403 -2.4474
  295PVA    C4650131   4.194   3.690   4.141 -0.1035  0.2096 -0.5863
  295PVA    H9150132   4.290   3.644   4.114  0.3917  0.0274  1.3298
  295PVA    H9250133   4.196   3.796   4.112 -1.9928  1.1437  2.3117
  295PVA    C4750134   4.172   3.683   4.303  0.1999  0.5003  0.1561
  295PVA    H9350135   4.199   3.580   4.330 -0.2814 -0.1307 -1.6079
  295PVA    O1650136   4.277   3.764   4.352  0.4657  0.2446 -0.9869
  295PVA    H9450137   4.301   3.742   4.444 -3.5317  1.5992  0.6031
  295PVA    C4850138   4.041   3.719   4.383 -0.3353  0.0513 -0.0682
  295PVA    H9550139   3.958   3.683   4.321  0.1161 -0.3270 -0.4644
  295PVA    H9650140   4.049   3.647   4.466  0.8574  1.5284  1.1571
  295PVA    C4950141   4.019   3.860   4.437  0.2814 -0.3923  0.7725
  295PVA    H9750142   4.022   3.926   4.349 -1.1887 -1.1724  0.0856
  295PVA    H9850143   4.101   3.897   4.499  0.6016  2.1309 -1.0136
  295PVA    C5050144   3.881   3.878   4.499 -0.7969  1.3933  0.6217
  295PVA    H9950145   3.812   3.850   4.419 -0.1016  2.0596 -0.2314
  295PVA    O1750146   3.864   3.797   4.614 -0.1825 -0.3762 -0.8574
  295PVA   H10050147   3.800   3.846   4.669  0.9870  0.5795 -0.2822
  295PVA    C5150148   3.850   4.015   4.529  0.6949  1.0146 -0.2743
  295PVA   H10150149   3.832   4.018   4.638  1.0746 -1.0525 -0.1077
  295PVA   H10250150   3.931   4.088   4.522  0.5644  1.5584  2.6092
  296PVA     C150151   6.380   5.751   7.939 -0.2785  0.0578 -0.7384
  296PVA     H150152   6.424   5.654   7.964 -1.4205 -0.3749 -0.3475
  296PVA     H250153   6.344   5.772   8.040 -3.2634  0.9036 -1.8623
  296PVA     C250154   6.254   5.729   7.846 -0.7210 -0.2510  0.4812
  296PVA     H350155   6.301   5.695   7.753 -1.2177 -0.5880  0.3454
  296PVA     O150156   6.189   5.853   7.835  0.3561  0.4154 -1.2986
  296PVA     H450157   6.242   5.934   7.820  0.4685  0.6261  0.0963
  296PVA     C350158   6.146   5.606   7.885  0.9573 -0.7626 -0.1405
  296PVA     H550159   6.190   5.506   7.888  0.7373 -0.8798 -0.7924
  296PVA     H650160   6.109   5.624   7.987 -1.0985 -5.9242  0.2859
  296PVA     C450161   6.006   5.589   7.805 -0.9659  0.3715 -0.2326
  296PVA     H750162   6.040   5.591   7.701  1.0206 -0.6763  0.3466
  296PVA     H850163   5.970   5.690   7.828  1.5732  1.2743  0.1503
  296PVA     C550164   5.906   5.465   7.841 -1.2063  1.2908  0.8953
  296PVA     H950165   5.899   5.438   7.947 -2.4575 -1.2075  0.2439
  296PVA     O250166   5.968   5.354   7.773  0.4382 -0.8262  0.6533
  296PVA    H1050167   6.044   5.391   7.725 -3.2654  3.7862 -2.6979
  296PVA     C650168   5.757   5.476   7.815  0.3353 -0.1702  0.4174
  296PVA    H1150169   5.713   5.563   7.865 -1.7636 -1.1704  0.3869
  296PVA    H1250170   5.746   5.495   7.707 -3.2508  3.2021  1.1627
  296PVA     C750171   5.665   5.347   7.859 -0.2290 -0.5462 -0.3009
  296PVA    H1350172   5.718   5.294   7.939 -1.8451 -2.5481 -0.4922
  296PVA    H1450173   5.666   5.272   7.780  2.3654 -0.9732  0.0444
  296PVA     C850174   5.504   5.376   7.881 -0.9363 -1.0115  0.3164
  296PVA    H1550175   5.492   5.457   7.953  0.3845  0.5132 -1.1116
  296PVA     O350176   5.459   5.428   7.762 -0.4437  0.5137  0.0067
  296PVA    H1650177   5.363   5.446   7.772 -0.1864  1.9511  0.1179
  296PVA     C950178   5.427   5.249   7.918 -0.9580 -0.6925  0.2750
  296PVA    H1750179   5.484   5.216   8.006  2.3717  0.8055 -1.1970
  296PVA    H1850180   5.459   5.173   7.846  0.5111 -2.9933  3.1602
  296PVA    C1050181   5.274   5.261   7.967  0.3049  0.4503  0.4101
  296PVA    H1950182   5.262   5.322   8.057  1.8135  2.0447 -0.4067
  296PVA    H2050183   5.212   5.313   7.892 -0.4116 -2.5541 -1.2266
  296PVA    C1150184   5.221   5.124   8.021 -0.3680 -0.1506 -0.3965
  296PVA    H2150185   5.291   5.088   0.001 -2.1140 -0.2339  1.2414
  296PVA     O450186   5.227   5.037   7.921  1.1871 -0.0585  0.8931
  296PVA    H2250187   5.193   4.956   7.964  0.2985  0.7471  1.7492
  296PVA    C1250188   5.074   5.127   8.068 -0.4242 -0.8706 -0.4157
  296PVA    H2350189   5.069   5.222   0.026  1.4716 -1.3141  0.5939
  296PVA    H2450190   5.003   5.125   7.984 -2.9384 -2.9780  1.5912
  296PVA    C1350191   5.030   5.007   0.054  0.1875  0.8009 -0.9947
  296PVA    H2550192   5.088   5.004   0.147 -1.1606 -0.3160 -0.1436
  296PVA    H2650193   5.057   4.911   0.007 -3.7599 -0.5163 -0.9668
  296PVA    C1450194   4.875   4.988   0.103  0.3581 -0.3220  0.3328
  296PVA    H2750195   4.820   4.959   0.012  1.7119 -0.1238 -0.5837
  296PVA     O550196   4.840   5.112   0.172  0.1626 -0.4955  0.0583
  296PVA    H2850197   4.775   5.162   0.119 -0.5444 -0.2473  1.1387
  296PVA    C1550198   4.838   4.864   0.198  0.6022  0.2994 -0.2454
  296PVA    H2950199   4.879   4.776   0.146 -1.0509 -0.9972  0.5353
  296PVA    H3050200   4.878   4.871   0.300  1.6751  0.5489 -0.6673
  296PVA    C1650201   4.692   4.845   0.254 -0.6770  0.9655  1.7071
  296PVA    H3150202   4.622   4.827   0.171 -0.8569  2.9681  1.3838
  296PVA    H3250203   4.661   4.941   0.297 -1.0306  1.0569  1.2527
  296PVA    C1750204   4.658   4.731   0.350  0.0562  1.7390  1.5773
  296PVA    H3350205   4.706   4.635   0.328 -3.0867  0.2097  0.8603
  296PVA     O650206   4.677   4.761   0.481 -0.8841  0.2847  1.1099
  296PVA    H3450207   4.696   4.852   0.512 -1.3870  0.5926  0.5289
  296PVA    C1850208   4.493   4.698   0.352 -0.0418 -0.6780  0.3467
  296PVA    H3550209   4.457   4.797   0.384  2.3369 -0.0839  1.3472
  296PVA    H3650210   4.448   4.699   0.252  0.3449 -2.3962  0.1310
  296PVA    C1950211   4.433   4.578   0.438 -0.7927  1.2616 -0.7008
  296PVA    H3750212   4.465   4.582   0.543 -2.4653  2.5115 -0.1781
  296PVA    H3850213   4.471   4.491   0.384 -1.4203  0.3565  0.2627
  296PVA    C2050214   4.273   4.554   0.429 -0.7400 -0.7516  0.4320
  296PVA    H3950215   4.243   4.658   0.411  0.8869 -0.2992  0.1818
  296PVA     O750216   4.222   4.486   0.315  0.6338  0.6246  0.4525
  296PVA    H4050217   4.258   4.396   0.322 -3.9024 -1.3447  3.4560
  296PVA    C2150218   4.190   4.503   0.552  0.0547  0.3170 -0.2090
  296PVA    H4150219   4.084   4.530   0.563 -0.5080 -0.2295 -3.2773
  296PVA    H4250220   4.230   4.541   0.646  4.3411  0.5581 -1.8941
  296PVA    C2250221   4.181   4.337   0.557 -0.1197  0.0508  0.4866
  296PVA    H4350222   4.158   4.297   0.458  2.4679 -1.1065  0.2493
  296PVA    H4450223   4.283   4.303   0.534 -0.4394  2.4020 -6.7478
  296PVA    C2350224   4.110   4.270   0.684 -0.0930 -0.0255  0.0470
  296PVA    H4550225   4.099   4.340   0.767  1.1492  3.3294 -2.4277
  296PVA     O850226   3.971   4.272   0.646  0.8944  0.4641 -0.9680
  296PVA    H4650227   3.966   4.353   0.592 -1.2075  0.0781 -1.4350
  296PVA    C2450228   4.142   4.120   0.728 -0.4460  1.2536 -0.6683
  296PVA    H4750229   4.118   4.063   0.638  0.3389 -3.3377  1.7330
  296PVA    H4850230   4.249   4.106   0.746 -0.2484  0.9255 -1.9949
  296PVA    C2550231   4.093   4.065   0.869  0.2825  0.1970 -0.2378
  296PVA    H4950232   4.047   4.143   0.930  1.2956  1.2239 -0.7436
  296PVA    H5050233   4.018   3.991   0.837  0.8423 -1.6556  2.3603
  296PVA    C2650234   4.191   3.974   0.963  0.0922 -0.2486  1.3134
  296PVA    H5150235   4.291   3.987   0.920 -1.6004 -0.9871 -3.5338
  296PVA     O950236   4.150   3.836   0.947 -0.5177 -0.2552  0.2440
  296PVA    H5250237   4.182   3.811   0.859 -1.8362  0.3891 -0.4589
  296PVA    C2750238   4.192   4.012   1.114  0.5312  0.4581  0.0319
  296PVA    H5350239   4.299   4.023   1.138  2.0578 -5.4155 -2.2348
  296PVA    H5450240   4.146   4.111   1.112  0.7270  0.5983 -3.1322
  296PVA    C2850241   4.123   3.927   1.224  0.0027  0.1024 -0.4667
  296PVA    H5550242   4.017   3.906   1.206  0.3504 -0.2074 -2.3990
  296PVA    H5650243   4.159   3.825   1.241 -3.7843 -0.9904  2.3406
  296PVA    C2950244   4.160   3.983   1.371 -0.9117 -0.4842  0.3845
  296PVA    H5750245   4.151   4.092   1.366 -0.9119 -0.4859  0.3498
  296PVA    O1050246   4.296   3.945   1.390 -0.5708 -1.0003 -0.0938
  296PVA    H5850247   4.349   4.009   1.441 -1.3664 -0.2858 -0.1297
  296PVA    C3050248   4.076   3.900   1.483 -0.0404 -1.3137  0.6570
  296PVA    H5950249   4.051   3.800   1.445  0.8650 -1.2208 -0.2273
  296PVA    H6050250   3.982   3.957   1.480  1.7079  1.7707 -2.7823
  296PVA    C3150251   4.135   3.894   1.632  0.2934 -0.1970 -0.3707
  296PVA    H6150252   4.172   3.991   1.668 -3.1036  2.0243 -2.3680
  296PVA    H6250253   4.207   3.811   1.632  0.3331 -0.3772  3.4240
  296PVA    C3250254   4.009   3.870   1.730 -0.3486  0.3891 -0.1795
  296PVA    H6350255   3.941   3.956   1.720 -0.1591  0.2840 -3.8859
  296PVA    O1150256   3.947   3.745   1.690 -0.3200  0.2310 -0.1444
  296PVA    H6450257   3.894   3.773   1.613 -0.4219 -2.6376 -1.2199
  296PVA    C3350258   4.074   3.858   1.881  0.7195 -0.6132 -0.5392
  296PVA    H6550259   4.157   3.926   1.907  2.8626 -3.3216  0.1931
  296PVA    H6650260   4.122   3.759   1.884 -2.8717 -2.4855 -0.2939
  296PVA    C3450261   3.968   3.866   1.997 -0.2866  0.8233 -0.3235
  296PVA    H6750262   3.922   3.965   2.001 -0.1119  0.8692  1.0541
  296PVA    H6850263   3.875   3.815   1.969  0.9464  0.8020 -5.1454
  296PVA    C3550264   4.015   3.851   2.152  0.2379 -0.1183  0.5376
  296PVA    H6950265   4.103   3.914   2.164 -0.5393  1.8468 -2.8920
  296PVA    O1250266   4.037   3.715   2.177 -0.4987 -0.4172 -0.1578
  296PVA    H7050267   4.102   3.679   2.114  2.6077 -1.8637  3.4296
  296PVA    C3650268   3.912   3.917   2.256 -0.2710  0.2863 -0.4168
  296PVA    H7150269   3.912   4.025   2.238  1.0856  1.1932  3.8077
  296PVA    H7250270   3.816   3.867   2.247 -2.9148  3.9477  3.4011
  296PVA    C3750271   3.977   3.921   2.400 -1.3228  0.1793  0.6107
  296PVA    H7350272   4.073   3.956   2.361 -2.6146 -1.1990 -4.6622
  296PVA    H7450273   3.975   3.814   2.427  2.1075 -1.6234 -4.6408
  296PVA    C3850274   3.902   4.000   2.512  0.0268 -1.0816 -0.3968
  296PVA    H7550275   3.872   4.094   2.464  0.0932  0.0967  1.7658
  296PVA    O1350276   3.784   3.927   2.554  0.8946 -1.0338  0.1463
  296PVA    H7650277   3.814   3.850   2.605 -0.4631 -1.7226 -0.0372
  296PVA    C3950278   3.991   4.031   2.640 -1.0691  1.3114  0.0680
  296PVA    H7750279   4.082   4.085   2.610  1.1023 -1.1279  1.8096
  296PVA    H7850280   4.016   3.935   2.687  0.3719  0.7033 -1.7986
  296PVA    C4050281   3.898   4.114   2.742  0.7700  0.6973 -0.0483
  296PVA    H7950282   3.855   4.203   2.694 -2.7078  0.9397  3.0910
  296PVA    H8050283   3.807   4.055   2.756  1.2269 -0.3957 -1.4516
  296PVA    C4150284   3.969   4.179   2.865 -0.1985  1.2736 -0.2793
  296PVA    H8150285   4.024   4.099   2.916  1.1432  1.0642 -1.9361
  296PVA    O1450286   4.059   4.272   2.829 -0.5011  0.6004  0.1479
  296PVA    H8250287   4.030   4.362   2.850  2.4930  1.8832 -0.7849
  296PVA    C4250288   3.876   4.234   2.976  0.8389  0.8747  0.4611
  296PVA    H8350289   3.823   4.326   2.949 -1.2454  0.0899  1.5849
  296PVA    H8450290   3.785   4.173   2.983  2.1449 -1.0953  1.3931
  296PVA    C4350291   3.922   4.237   3.125 -0.0480  0.2710 -0.7400
  296PVA    H8550292   4.011   4.179   3.149  0.1827  0.5259 -0.9614
  296PVA    H8650293   3.963   4.339   3.125  2.4704 -0.6734 -1.9062
  296PVA    C4450294   3.818   4.226   3.241 -0.0492 -0.0056  0.1493
  296PVA    H8750295   3.775   4.327   3.253  2.9215  1.2935  0.7774
  296PVA    O1550296   3.714   4.140   3.206 -0.6555  0.1960  0.4048
  296PVA    H8850297   3.694   4.169   3.115  1.2518  0.7209  0.1205
  296PVA    C4550298   3.862   4.209   3.396 -0.4777  1.0399 -0.0265
  296PVA    H8950299   3.926   4.289   3.438 -0.3897  1.2320 -0.5230
  296PVA    H9050300   3.935   4.128   3.384  0.4431  2.1357 -2.4191
  296PVA    C4650301   3.752   4.178   3.494  0.7161 -0.1746 -0.4213
  296PVA    H9150302   3.676   4.257   3.503 -0.6107 -1.4885  0.5215
  296PVA    H9250303   3.689   4.102   3.445  2.8824 -0.6366 -2.7328
  296PVA    C4750304   3.771   4.122   3.636 -0.2006  0.7058 -0.3073
  296PVA    H9350305   3.861   4.152   3.690 -0.2924 -2.3014  1.7658
  296PVA    O1650306   3.768   3.981   3.634 -0.6755  0.5325 -0.7219
  296PVA    H9450307   3.836   3.970   3.565  3.8847  1.9428  3.0315
  296PVA    C4850308   3.645   4.161   3.725 -1.1006  0.6918  0.6645
  296PVA    H9550309   3.671   4.258   3.768 -0.4077  0.4009  0.9164
  296PVA    H9650310   3.564   4.171   3.652  1.0002 -5.0381 -3.1604
  296PVA    C4950311   3.586   4.081   3.861 -0.6568 -0.4338 -0.3250
  296PVA    H9750312   3.601   3.972   3.855  0.7358 -0.3951  1.5769
  296PVA    H9850313   3.478   4.073   3.844 -0.5420  0.0929 -1.3899
  296PVA    C5050314   3.593   4.145   4.004 -0.2683 -0.4322 -1.0659
  296PVA    H9950315   3.695   4.137   4.041 -1.4566 -4.6585  2.0327
  296PVA    O1750316   3.576   4.291   3.989 -0.0955  0.6542 -0.4913
  296PVA   H10050317   3.591   4.324   4.079  2.2377  1.0832 -0.9692
  296PVA    C5150318   3.510   4.088   4.126 -1.0095 -0.4144  0.2020
  296PVA   H10150319   3.495   3.979   4.124  1.8940 -0.9600 -3.1413
  296PVA   H10250320   3.403   4.111   4.112 -0.2622  2.0269 -2.5453
  297PVA     C150321   6.634   6.213   8.035  0.4669 -0.4177 -0.3991
  297PVA     H150322   6.722   6.276   8.015 -2.1587  3.3853 -0.9917
  297PVA     H250323   6.642   6.172   0.039  3.7434  4.2649  1.6073
  297PVA     C250324   6.514   6.315   8.056  0.4106 -0.0790 -0.1542
  297PVA     H350325   6.421   6.278   0.005 -0.5447  2.8525  0.4796
  297PVA     O150326   6.490   6.370   7.924 -1.1836  0.6767 -0.2045
  297PVA     H450327   6.397   6.369   7.896 -0.7970  4.3711 -2.3186
  297PVA     C350328   6.560   6.441   0.059  1.3513 -0.0185 -0.2833
  297PVA     H550329   6.649   6.486   0.012  1.9541  1.5405  2.1191
  297PVA     H650330   6.584   6.393   0.155 -1.3068  0.9574  0.9847
  297PVA     C450331   6.464   6.573   0.108 -0.3572 -0.0354  0.3244
  297PVA     H750332   6.475   6.653   0.034 -1.0144  1.3591  1.6961
  297PVA     H850333   6.361   6.537   0.092 -0.7193 -0.2878  2.8578
  297PVA     C550334   6.468   6.640   0.255 -0.2497  0.3023 -1.0580
  297PVA     H950335   6.548   6.586   0.306 -0.2159  0.5607 -0.8351
  297PVA     O250336   6.357   6.604   0.338 -0.0497 -0.1397 -1.7203
  297PVA    H1050337   6.409   6.592   0.419 -3.4279  0.6934  0.8050
  297PVA     C650338   6.453   6.806   0.262  0.3816  0.4430  0.2089
  297PVA    H1150339   6.349   6.832   0.241  0.9144  0.7795 -2.3724
  297PVA    H1250340   6.528   6.842   0.190  1.5661 -1.3066  0.4883
  297PVA     C750341   6.476   6.898   0.396  0.0930 -0.3799  0.6807
  297PVA    H1350342   6.555   6.866   0.465 -1.5191 -1.8461  1.9499
  297PVA    H1450343   6.395   6.863   0.461 -2.1299  0.2335 -1.6035
  297PVA     C850344   6.472   7.056   0.383  0.8049  0.9408  0.4763
  297PVA    H1550345   6.554   7.065   0.311  0.2240  0.9296 -0.1995
  297PVA     O350346   6.356   7.080   0.305 -0.1622  0.3489 -0.3120
  297PVA    H1650347   6.376   7.042   0.218  0.8807  1.5391 -0.6125
  297PVA     C950348   6.484   7.169   0.501 -0.4109 -0.9141 -0.3264
  297PVA    H1750349   6.574   7.136   0.553  0.3450 -3.7803 -3.1495
  297PVA    H1850350   6.405   7.151   0.576  3.2661 -3.6606  3.3819
  297PVA    C1050351   6.489   7.320   0.460 -0.1868  0.8021  0.1746
  297PVA    H1950352   6.591   7.336   0.498  0.3340 -2.8988  0.7085
  297PVA    H2050353   6.475   7.311   0.351 -2.7994  0.1809  0.5041
  297PVA    C1150354   6.393   7.442   0.519 -0.8441 -0.7036  0.9937
  297PVA    H2150355   6.296   7.445   0.469  0.7700 -4.0470 -2.9420
  297PVA     O450356   6.356   7.418   0.658 -0.8458  0.3759  0.2033
  297PVA    H2250357   6.260   7.410   0.671 -0.6254 -3.0056  0.8467
  297PVA    C1250358   6.454   7.595   0.506 -0.4270 -0.1106 -0.1685
  297PVA    H2350359   6.513   7.608   0.597 -0.9812 -3.0853  0.7227
  297PVA    H2450360   6.501   7.594   0.407 -1.5418 -0.6863 -0.7003
  297PVA    C1350361   6.354   0.027   0.527  0.9022 -1.5001 -0.7668
  297PVA    H2550362   6.287   0.003   0.610 -0.0027  0.3869 -0.9045
  297PVA    H2650363   6.298   0.000   0.436  4.1110 -4.2706 -2.1481
  297PVA    C1450364   6.378   0.181   0.507 -0.4534  0.3079 -0.5993
  297PVA    H2750365   6.407   0.226   0.603  0.1231 -2.5607  0.6845
  297PVA     O550366   6.478   0.199   0.418  0.6714 -0.3143 -0.4924
  297PVA    H2850367   6.552   0.143   0.447  2.0970  0.7587 -1.9154
  297PVA    C1550368   6.254   0.269   0.479 -0.3092  0.4486  0.2646
  297PVA    H2950369   6.173   0.232   0.543  1.1578 -0.1409  1.8843
  297PVA    H3050370   6.226   0.238   0.377  1.6529 -0.2055 -0.1187
  297PVA    C1650371   6.273   0.430   0.459 -0.2413  0.9581 -1.3999
  297PVA    H3150372   6.327   0.470   0.546 -1.7576  2.6454 -1.1757
  297PVA    H3250373   6.359   0.462   0.398  0.0192  2.4832 -0.2828
  297PVA    C1750374   6.142   0.531   0.454 -0.0358 -0.9569  0.1433
  297PVA    H3350375   6.068   0.489   0.384  0.2851  0.0335 -0.8248
  297PVA     O650376   6.112   0.533   0.584  0.5862 -0.1366  0.4589
  297PVA    H3450377   6.020   0.503   0.587 -0.7440  3.4321  3.7859
  297PVA    C1850378   6.158   0.686   0.400  0.6289  0.5941 -0.1138
  297PVA    H3550379   6.255   0.735   0.419 -0.3751  1.9439  2.0310
  297PVA    H3650380   6.144   0.677   0.292  1.0769 -1.0430 -0.0591
  297PVA    C1950381   6.053   0.788   0.452  0.4085  0.6029  0.3349
  297PVA    H3750382   6.020   0.742   0.546 -1.9889  0.9619 -0.2762
  297PVA    H3850383   5.964   0.782   0.388 -1.7033  4.9556  2.4128
  297PVA    C2050384   6.079   0.939   0.476 -0.6792 -0.4068 -1.0701
  297PVA    H3950385   6.152   0.951   0.557 -2.0315 -0.4439  0.2005
  297PVA     O750386   6.126   0.993   0.349  0.6975 -0.9363 -1.2078
  297PVA    H4050387   6.056   0.965   0.288  1.1492  0.6274 -2.5299
  297PVA    C2150388   5.958   1.041   0.528  1.3684  0.0913 -0.5974
  297PVA    H4150389   5.864   0.987   0.542  2.7037 -2.3822 -0.6508
  297PVA    H4250390   5.938   1.118   0.453 -0.0013  0.7501  0.3938
  297PVA    C2250391   5.979   1.138   0.655 -1.0705 -0.3742 -0.0714
  297PVA    H4350392   6.074   1.088   0.680  1.5673  0.9525 -5.9411
  297PVA    H4450393   6.002   1.241   0.626 -1.3669  0.1744  1.5161
  297PVA    C2350394   5.882   1.146   0.782 -0.4721  0.5335 -0.6274
  297PVA    H4550395   5.851   1.044   0.807  3.3175 -0.6422 -0.1176
  297PVA     O850396   5.761   1.222   0.750  2.0879  0.1966  0.4671
  297PVA    H4650397   5.741   1.295   0.811  1.0358  0.4020 -0.0967
  297PVA    C2450398   5.934   1.221   0.919 -0.0773  0.0514 -0.8923
  297PVA    H4750399   6.043   1.232   0.921 -0.1197  0.4293  0.7286
  297PVA    H4850400   5.900   1.325   0.913 -0.1905  0.3462  2.6388
  297PVA    C2550401   5.871   1.173   1.060 -0.0116 -0.2583  0.3187
  297PVA    H4950402   5.895   1.066   1.052  0.4782 -0.0447 -1.2944
  297PVA    H5050403   5.766   1.164   1.029 -0.2618  1.8283  0.4318
  297PVA    C2650404   5.911   1.209   1.221 -0.8374 -0.2845  1.2408
  297PVA    H5150405   5.906   1.317   1.234 -1.8385 -0.2525  0.7329
  297PVA     O950406   6.047   1.170   1.242 -1.2343 -0.4279  0.1429
  297PVA    H5250407   6.110   1.203   1.176 -0.6735  2.2481  1.8977
  297PVA    C2750408   5.813   1.183   1.355 -0.0487  0.0069 -0.5623
  297PVA    H5350409   5.742   1.261   1.382 -0.6957 -1.2609  1.5987
  297PVA    H5450410   5.895   1.197   1.427  0.5514 -3.6849 -0.3261
  297PVA    C2850411   5.742   1.045   1.419  0.1449  0.3005  0.1437
  297PVA    H5550412   5.745   0.966   1.342 -0.5268  1.3473 -0.9906
  297PVA    H5650413   5.807   1.001   1.495 -2.3938 -0.1640  2.1801
  297PVA    C2950414   5.600   1.032   1.479  0.9169  0.1281 -1.5865
  297PVA    H5750415   5.615   1.085   1.574 -0.6986 -0.5605 -0.9002
  297PVA    O1050416   5.490   1.096   1.417  0.1659 -0.4304  0.2236
  297PVA    H5850417   5.463   1.032   1.349 -0.2484 -0.7914  0.7225
  297PVA    C3050418   5.549   0.885   1.544 -0.8898 -0.1295  0.7714
  297PVA    H5950419   5.627   0.808   1.547  0.2025  0.6910 -2.3808
  297PVA    H6050420   5.552   0.910   1.651  2.9216  1.3961  0.4573
  297PVA    C3150421   5.411   0.808   1.506 -0.2080 -1.5069  0.1655
  297PVA    H6150422   5.390   0.770   1.405  4.4217 -4.5434  0.0151
  297PVA    H6250423   5.345   0.892   1.527  0.7414 -1.1141  1.7585
  297PVA    C3250424   5.376   0.688   1.605  0.2233  0.1129  0.2516
  297PVA    H6350425   5.346   0.728   1.702 -2.6350 -1.4267  0.1168
  297PVA    O1150426   5.487   0.616   1.642  0.4967  0.0544 -0.7486
  297PVA    H6450427   5.544   0.674   1.695  1.4741 -0.3403 -1.3248
  297PVA    C3350428   5.261   0.590   1.560  0.3895 -0.2542  1.0685
  297PVA    H6550429   5.276   0.569   1.454 -2.6199  3.3037 -0.2991
  297PVA    H6650430   5.173   0.656   1.566  0.1904 -0.6403  3.6733
  297PVA    C3450431   5.219   0.460   1.640 -0.7791  0.3608 -0.4448
  297PVA    H6750432   5.280   0.471   1.730  3.6658 -1.0212 -2.9860
  297PVA    H6850433   5.115   0.473   1.672 -0.7370  0.4880 -0.3603
  297PVA    C3550434   5.231   0.305   1.592  0.8704  0.1230  0.7184
  297PVA    H6950435   5.317   0.266   1.649  4.3345  1.7834 -2.8862
  297PVA    O1250436   5.264   0.296   1.455  0.4065  0.3363 -0.1126
  297PVA    H7050437   5.300   0.207   1.437 -3.2995 -0.9212 -2.3168
  297PVA    C3650438   5.117   0.206   1.632  0.8307 -0.2733 -0.3929
  297PVA    H7150439   5.129   0.171   1.735 -1.6215  3.5072  1.4037
  297PVA    H7250440   5.020   0.257   1.638  1.4738  0.8339  1.0321
  297PVA    C3750441   5.099   0.079   1.537  0.7417  0.6784  1.1883
  297PVA    H7350442   5.193   0.034   1.503 -0.2877  0.9050 -2.4238
  297PVA    H7450443   5.071   0.121   1.439  1.3502 -1.5292 -0.0021
  297PVA    C3850444   4.989   7.659   1.574  0.1630 -0.4436  0.2778
  297PVA    H7550445   5.022   7.646   1.678 -4.3174 -2.7520  1.6437
  297PVA    O1350446   4.857   0.020   1.579  0.7240 -0.7037 -0.2576
  297PVA    H7650447   4.814   7.638   1.636 -1.5674  1.0514  0.1958
  297PVA    C3950448   5.000   7.506   1.505 -0.2350 -0.0682  0.0626
  297PVA    H7750449   5.102   7.495   1.468  0.2213  1.2620  0.8338
  297PVA    H7850450   4.926   7.500   1.424 -1.1610 -1.6476  0.9755
  297PVA    C4050451   4.973   7.370   1.592  0.8842  0.4993 -0.0060
  297PVA    H7950452   5.025   7.394   1.685 -2.7526  6.8951  0.9656
  297PVA    H8050453   4.868   7.371   1.624  1.3430 -3.5938  2.3215
  297PVA    C4150454   4.990   7.217   1.521 -0.0001  0.4175  0.6894
  297PVA    H8150455   4.893   7.201   1.473  0.7677  2.1296 -1.6316
  297PVA    O1450456   5.081   7.215   1.428  0.0060 -0.3053 -0.0618
  297PVA    H8250457   5.068   7.145   1.361  3.7082  0.0877 -1.4197
  297PVA    C4250458   5.008   7.097   1.621  0.4831  0.1407  0.2703
  297PVA    H8350459   5.079   7.134   1.696  3.4211  2.8628 -3.4728
  297PVA    H8450460   4.912   7.081   1.671 -0.4139 -1.9697 -1.9113
  297PVA    C4350461   5.052   6.952   1.572  0.0579 -0.7280 -0.0956
  297PVA    H8550462   5.146   6.951   1.517 -0.8112 -4.8109 -1.9276
  297PVA    H8650463   4.972   6.927   1.500  0.2338 -1.5272 -0.0264
  297PVA    C4450464   5.034   6.823   1.671  0.5759  0.8426 -0.0747
  297PVA    H8750465   4.930   6.788   1.662  1.5025 -3.0031  1.9655
  297PVA    O1550466   5.042   6.853   1.804  0.2272 -0.3122  0.0011
  297PVA    H8850467   5.117   6.819   1.855 -2.5396  0.8450  5.6593
  297PVA    C4550468   5.135   6.709   1.644  0.0208 -0.0232 -0.3812
  297PVA    H8950469   5.234   6.745   1.674  1.0050 -1.4240 -1.8367
  297PVA    H9050470   5.143   6.714   1.535  0.7255 -1.8560 -0.4314
  297PVA    C4650471   5.111   6.549   1.688 -0.8210 -0.2130 -0.6099
  297PVA    H9150472   5.068   6.540   1.788  1.6630 -1.8554  0.3892
  297PVA    H9250473   5.044   6.487   1.626 -0.3010 -0.0240 -1.3794
  297PVA    C4750474   5.245   6.465   1.693 -0.7999  0.2165  0.5239
  297PVA    H9350475   5.296   6.506   1.605 -3.5316 -3.8381 -3.3567
  297PVA    O1650476   5.302   6.463   1.824 -0.7897  0.0152 -0.2692
  297PVA    H9450477   5.394   6.491   1.811 -0.0441 -1.6345  1.0653
  297PVA    C4850478   5.238   6.298   1.663  1.1072 -0.2578 -0.8485
  297PVA    H9550479   5.144   6.273   1.713 -1.1387  3.1489 -2.9196
  297PVA    H9650480   5.204   6.264   1.565 -1.3688 -4.1389  1.1071
  297PVA    C4950481   5.367   6.205   1.665  0.2145  0.6807  0.7732
  297PVA    H9750482   5.429   6.228   1.578 -1.8503  2.5324 -0.2862
  297PVA    H9850483   5.429   6.226   1.753 -0.1134 -0.2485  1.2441
  297PVA    C5050484   5.343   6.043   1.663  0.6847 -1.1026  0.3323
  297PVA    H9950485   5.270   6.036   1.581 -0.7161  3.7751  0.8641
  297PVA    O1750486   5.260   5.994   1.770 -0.4678 -1.7445  0.6734
  297PVA   H10050487   5.293   6.043   1.847  0.4646 -3.4622  1.4454
  297PVA    C5150488   5.476   5.946   1.628  0.9693  0.0670 -0.0125
  297PVA   H10150489   5.567   5.993   1.667  1.6382  0.1912 -1.6431
  297PVA   H10250490   5.498   5.954   1.521  0.9293  2.2584  0.0962
  298PVA     C150491   2.899   3.765   5.131 -1.0865  0.5798  0.1915
  298PVA     H150492   2.956   3.734   5.220  3.0553  1.9824 -1.6995
  298PVA     H250493   2.917   3.677   5.068 -0.2964  2.1469 -1.9038
  298PVA     C250494   2.744   3.779   5.155 -0.2527  0.6336  0.4110
  298PVA     H350495   2.705   3.746   5.058  0.0375  0.0640  0.4835
  298PVA     O150496   2.697   3.910   5.160  0.6907  0.7583  0.9242
  298PVA     H450497   2.721   3.932   5.252 -0.5791 -2.7840  2.2690
  298PVA     C350498   2.677   3.690   5.280 -0.2110 -0.4189  0.2769
  298PVA     H550499   2.700   3.582   5.279 -1.4960 -0.7377  1.8342
  298PVA     H650500   2.733   3.724   5.368 -0.2137  0.6667 -0.1262
  298PVA     C450501   2.519   3.697   5.325 -0.3695 -0.0081  0.3400
  298PVA     H750502   2.458   3.680   5.236  0.1019 -0.7025  0.1379
  298PVA     H850503   2.499   3.798   5.362  2.2080  0.6260  0.1882
  298PVA     C550504   2.474   3.573   5.428  0.2191  1.1423 -0.9153
  298PVA     H950505   2.564   3.512   5.437 -0.5734  0.1153  0.4299
  298PVA     O250506   2.388   3.509   5.343  0.2137  0.4576  0.4518
  298PVA    H1050507   2.434   3.459   5.274 -2.0429 -0.4287 -0.5107
  298PVA     C650508   2.392   3.612   5.564  0.3304  0.0879  0.5004
  298PVA    H1150509   2.454   3.656   5.644  0.4066 -2.4797  1.9764
  298PVA    H1250510   2.332   3.691   5.517  2.6275  0.5096 -1.9916
  298PVA     C750511   2.304   3.495   5.625  0.0802 -0.4375 -0.1979
  298PVA    H1350512   2.366   3.405   5.624  1.7172  0.5727  1.7291
  298PVA    H1450513   2.226   3.463   5.555 -1.1446  2.4037 -0.2857
  298PVA     C850514   2.231   3.485   5.771  0.1784  0.9102  0.5300
  298PVA    H1550515   2.307   3.524   5.841  4.6798  2.7180 -4.6186
  298PVA     O350516   2.214   3.349   5.791  0.3340  0.4727  0.5416
  298PVA    H1650517   2.223   3.329   5.697 -0.6908  2.3181  0.0009
  298PVA     C950518   2.081   3.535   5.789 -0.5189 -0.9143 -0.2134
  298PVA    H1750519   2.018   3.494   5.710 -1.3486  2.0765 -1.2243
  298PVA    H1850520   2.053   3.639   5.766 -1.8784 -1.4902 -1.2478
  298PVA    C1050521   2.010   3.519   5.937 -0.0891  0.9171  0.1008
  298PVA    H1950522   2.009   3.410   5.947 -0.9215  1.1228  5.0167
  298PVA    H2050523   2.073   3.554   6.019  0.4081 -0.2614  0.2419
  298PVA    C1150524   1.855   3.578   5.986  0.5044 -0.3160  0.3484
  298PVA    H2150525   1.774   3.567   5.913  1.1360  0.8332 -0.5650
  298PVA     O450526   1.885   3.728   5.985 -0.6451  0.0897 -0.0269
  298PVA    H2250527   1.830   3.785   6.042 -4.7976 -0.5591 -2.9719
  298PVA    C1250528   1.787   3.550   6.136  0.5722 -0.3576  0.0259
  298PVA    H2350529   1.868   3.516   6.200 -0.3656 -0.5771  1.1357
  298PVA    H2450530   1.754   3.641   6.188  1.0058  1.1445 -2.1591
  298PVA    C1350531   1.667   3.444   6.146 -0.1649 -0.5095  0.4091
  298PVA    H2550532   1.708   3.346   6.174 -2.1655 -0.9464  2.0194
  298PVA    H2650533   1.624   3.437   6.045  0.2630 -2.7933  0.3427
  298PVA    C1450534   1.556   3.468   6.263 -0.8444  0.3080  1.5437
  298PVA    H2750535   1.613   3.459   6.356 -0.6695  0.8250  1.4874
  298PVA     O550536   1.504   3.603   6.258  0.3077 -0.9882  0.2719
  298PVA    H2850537   1.417   3.591   6.298 -0.9437  4.4467 -0.0095
  298PVA    C1550538   1.423   3.362   6.264  0.2824 -0.0833 -0.5582
  298PVA    H2950539   1.423   3.294   6.350  1.8440  2.2352  1.4099
  298PVA    H3050540   1.422   3.300   6.173  1.9335 -0.9221 -0.0329
  298PVA    C1650541   1.274   3.420   6.282 -0.2517  0.3655  0.5511
  298PVA    H3150542   1.229   3.434   6.183 -2.4316 -2.0467  1.1031
  298PVA    H3250543   1.279   3.524   6.317 -1.4981 -0.4182  3.3791
  298PVA    C1750544   1.169   3.332   6.368  0.0744 -0.0667 -0.9441
  298PVA    H3350545   1.199   3.322   6.473  0.0744  1.1491 -0.8068
  298PVA     O650546   1.170   3.203   6.320 -1.0837  0.4912  0.9232
  298PVA    H3450547   1.081   3.201   6.281 -1.6752  4.1902  1.7093
  298PVA    C1850548   1.018   3.374   6.364  0.4066 -0.2992  0.7205
  298PVA    H3550549   1.011   3.484   6.356 -4.4965 -0.4110  0.1156
  298PVA    H3650550   0.972   3.349   6.267  4.6887 -0.6233 -1.4738
  298PVA    C1950551   0.920   3.343   6.484 -0.0300  0.9606  1.4741
  298PVA    H3750552   0.954   3.380   6.582 -2.7940 -1.2709  3.4475
  298PVA    H3850553   0.895   3.236   6.486  3.6210 -0.3031 -2.7763
  298PVA    C2050554   0.782   3.425   6.488  0.3010 -0.0182  0.4822
  298PVA    H3950555   0.803   3.533   6.492  2.0763 -0.2368 -1.3151
  298PVA     O750556   0.724   3.407   6.358 -0.2230  0.2000  0.6347
  298PVA    H4050557   0.729   3.480   6.294 -2.1038 -2.8405 -3.4422
  298PVA    C2150558   0.689   3.383   6.615  0.9258 -1.0120 -0.2672
  298PVA    H4150559   0.737   3.428   6.703 -0.2525 -0.5875  0.1730
  298PVA    H4250560   0.705   3.274   6.621 -1.9225 -1.9535 -4.8719
  298PVA    C2250561   0.529   3.412   6.627  1.3845  0.9247 -0.5490
  298PVA    H4350562   0.508   3.503   6.569 -0.7546  2.9928  3.0882
  298PVA    H4450563   0.466   3.336   6.580  1.4096  0.8084 -0.3963
  298PVA    C2350564   0.464   3.432   6.771  0.3362  0.5670 -0.5468
  298PVA    H4550565   0.527   3.501   6.827  1.5268  1.0674 -2.4119
  298PVA     O850566   0.462   3.301   6.842 -0.1910  0.2510  0.7221
  298PVA    H4650567   0.381   3.313   6.895 -0.0773  6.0141  0.2219
  298PVA    C2450568   0.306   3.495   6.771  0.0323 -0.1812  0.3226
  298PVA    H4750569   0.313   3.562   6.684  0.4608 -0.0903  0.4266
  298PVA    H4850570   0.238   3.419   6.732  0.1677  1.0814 -2.6701
  298PVA    C2550571   0.226   3.581   6.901  0.0649 -0.0715 -0.0975
  298PVA    H4950572   0.283   3.674   6.911  2.2438 -1.1098 -1.9337
  298PVA    H5050573   0.249   3.528   6.995  0.8292 -0.4928 -0.5116
  298PVA    C2650574   0.073   3.610   6.923  0.1201  0.7523  1.4583
  298PVA    H5150575   0.045   3.675   6.839  2.3759 -0.5679 -0.4153
  298PVA     O950576   0.018   3.472   6.925  0.5420  0.2323 -0.0344
  298PVA    H5250577   7.723   3.469   7.001 -2.1643 -1.7070 -2.0565
  298PVA    C2750578   0.031   3.671   7.060  0.9352  0.4868 -0.0898
  298PVA    H5350579   0.106   3.749   7.082  1.2838 -0.0913  0.8385
  298PVA    H5450580   0.045   3.594   7.137 -0.9027 -1.3674 -1.5394
  298PVA    C2850581   7.644   3.741   7.062  0.7198 -0.4119 -0.3025
  298PVA    H5550582   7.563   3.679   7.023  1.3312 -0.3839 -1.6806
  298PVA    H5650583   7.644   3.814   6.980 -2.2382  3.3370  2.6731
  298PVA    C2950584   7.587   3.817   7.196 -1.3577  0.6695  0.6422
  298PVA    H5750585   7.622   3.758   7.281 -2.3921  2.9097  2.7314
  298PVA    O1050586   7.666   3.935   7.187  0.2209  0.1100  0.2328
  298PVA    H5850587   7.643   3.982   7.269 -0.2962  1.6297 -0.7487
  298PVA    C3050588   7.430   3.850   7.212  0.1030  0.8160  0.6656
  298PVA    H5950589   7.391   3.938   7.159 -4.0617 -0.1673  1.7811
  298PVA    H6050590   7.365   3.771   7.173  0.2084  0.4602  1.2038
  298PVA    C3150591   7.388   3.897   7.359  0.3056 -1.5489  0.1955
  298PVA    H6150592   7.426   3.997   7.383 -0.3934 -1.2080 -0.0899
  298PVA    H6250593   7.422   3.824   7.434 -5.9219 -5.6172 -0.1428
  298PVA    C3250594   7.226   3.900   7.396 -0.5821 -0.5540 -0.1854
  298PVA    H6350595   7.184   3.962   7.316  2.9498 -1.3716 -2.9430
  298PVA    O1150596   7.173   3.770   7.370 -0.1939  0.5465  0.0178
  298PVA    H6450597   7.081   3.763   7.401 -0.9459 -2.6361 -2.4373
  298PVA    C3350598   7.194   3.943   7.544  0.1359  0.0256 -0.3416
  298PVA    H6550599   7.237   3.867   7.610 -2.1053 -2.5198 -1.6127
  298PVA    H6650600   7.258   4.032   7.553  1.1221  0.3423 -6.2622
  298PVA    C3450601   7.036   3.966   7.588  0.4894 -0.8839 -0.0692
  298PVA    H6750602   6.989   4.042   7.524  1.7460 -1.9965 -2.4473
  298PVA    H6850603   6.979   3.883   7.543 -0.6078  2.1339 -4.9101
  298PVA    C3550604   6.998   3.963   7.748  0.5064 -0.5467 -0.0416
  298PVA    H6950605   6.990   3.855   7.769  1.4626 -1.1758 -2.4985
  298PVA    O1250606   7.098   4.027   7.835 -0.3812  0.0443 -0.5494
  298PVA    H7050607   7.069   4.013   7.927 -0.2047 -2.4439 -0.7927
  298PVA    C3650608   6.867   4.036   7.809  0.1366 -0.4334  0.4667
  298PVA    H7150609   6.871   4.142   7.780  0.8488 -0.9824 -1.6548
  298PVA    H7250610   6.786   3.979   7.761 -0.9523 -0.8929  2.7532
  298PVA    C3750611   6.830   4.028   7.971  0.2363 -0.3130  0.3577
  298PVA    H7350612   6.928   4.024   8.020  2.2083  0.5462 -3.1960
  298PVA    H7450613   6.780   3.935   8.000 -0.1537  0.1243  1.1561
  298PVA    C3850614   6.727   4.137   8.036 -0.3710  0.3972 -0.4578
  298PVA    H7550615   6.628   4.116   7.994  0.6071  2.5025 -4.3673
  298PVA    O1350616   6.770   4.264   7.986  0.5624  0.0363  0.2764
  298PVA    H7650617   6.740   4.272   7.894  0.5608  3.8487  0.4409
  298PVA    C3950618   6.715   4.132   0.095 -0.0588  0.5590 -0.0890
  298PVA    H7750619   6.823   4.149   0.106  0.1231  0.5344 -1.7161
  298PVA    H7850620   6.686   4.036   0.139 -1.3164 -0.2684 -2.5917
  298PVA    C4050621   6.644   4.249   0.179  0.4845 -0.2364  0.1934
  298PVA    H7950622   6.686   4.349   0.160 -1.3901  1.3351  3.4052
  298PVA    H8050623   6.541   4.271   0.147  1.3384 -0.6990 -3.3450
  298PVA    C4150624   6.633   4.232   0.343 -1.2212  1.9193 -0.6769
  298PVA    H8150625   6.545   4.168   0.358 -0.5039  1.0660  0.0487
  298PVA    O1450626   6.754   4.170   0.388  0.0656 -0.7878 -0.8768
  298PVA    H8250627   6.800   4.233   0.446 -0.1923 -1.2202 -0.2023
  298PVA    C4250628   6.612   4.359   0.436  0.9413  0.0975  0.1472
  298PVA    H8350629   6.690   4.431   0.411  0.2058  0.5778 -0.8512
  298PVA    H8450630   6.518   4.410   0.410  0.2683  0.4766  2.9458
  298PVA    C4350631   6.586   4.365   0.597  0.4345 -0.6809  0.1132
  298PVA    H8550632   6.681   4.340   0.645  3.0501  2.7233 -2.8015
  298PVA    H8650633   6.508   4.287   0.596 -0.8535  0.2165  4.8177
  298PVA    C4450634   6.497   4.484   0.665 -0.5276  0.3782 -0.4683
  298PVA    H8750635   6.398   4.453   0.630 -0.7366 -2.8982  2.4745
  298PVA    O1550636   6.550   4.599   0.637  0.8690 -0.1644  0.7600
  298PVA    H8850637   6.565   4.604   0.541  0.4267 -1.3127  0.6217
  298PVA    C4550638   6.490   4.474   0.827  0.1112 -0.6260  0.4331
  298PVA    H8950639   6.583   4.425   0.859  0.9377  1.0150  0.6318
  298PVA    H9050640   6.419   4.398   0.862 -2.5700  2.9303  3.5559
  298PVA    C4650641   6.450   4.608   0.898 -1.2040 -0.3750 -1.3762
  298PVA    H9150642   6.537   4.674   0.890  1.0396 -3.3159 -2.9017
  298PVA    H9250643   6.377   4.668   0.843 -0.0436 -0.8679 -3.5678
  298PVA    C4750644   6.400   4.604   1.051  0.1403  1.0177 -1.5749
  298PVA    H9350645   6.466   4.538   1.110 -1.3718 -2.2357 -3.2603
  298PVA    O1650646   6.284   4.528   1.049 -0.3582 -1.5376 -0.0151
  298PVA    H9450647   6.261   4.485   1.134 -1.8527  1.4075  1.1907
  298PVA    C4850648   6.383   4.739   1.146 -0.6659 -0.2406 -0.7960
  298PVA    H9550649   6.474   4.755   1.206  0.9215 -2.8374 -2.3130
  298PVA    H9650650   6.371   4.825   1.079  0.4730  1.7779  1.4409
  298PVA    C4950651   6.269   4.743   1.257  0.0754  0.3215 -0.1664
  298PVA    H9750652   6.254   4.660   1.327 -1.7560 -0.9864 -1.9909
  298PVA    H9850653   6.175   4.750   1.200  1.4988 -1.9334 -3.0693
  298PVA    C5050654   6.262   4.871   1.358 -0.1688 -0.1084 -0.2827
  298PVA    H9950655   6.241   4.955   1.291 -3.6215 -0.5747  0.0278
  298PVA    O1750656   6.388   4.872   1.430 -0.8153 -0.2158 -0.2197
  298PVA   H10050657   6.429   4.785   1.444 -1.7602 -0.2904  2.4948
  298PVA    C5150658   6.140   4.892   1.477  0.5772 -0.2719 -0.3274
  298PVA   H10150659   6.156   4.829   1.565  2.3931 -2.8171 -2.3263
  298PVA   H10250660   6.043   4.867   1.432  1.5290 -3.7600 -0.7313
  299PVA     C150661   3.307   4.075   5.216 -1.0214 -0.4376  0.6651
  299PVA     H150662   3.295   4.029   5.315 -4.3224  0.7377  0.9109
  299PVA     H250663   3.258   4.173   5.225 -0.5633  0.0081 -1.2874
  299PVA     C250664   3.463   4.107   5.191  0.8966  0.6042 -0.4655
  299PVA     H350665   3.522   4.035   5.249  0.1666 -0.4059 -0.9528
  299PVA     O150666   3.499   4.083   5.060  0.3916  0.1883 -0.2539
  299PVA     H450667   3.418   4.069   5.009  0.0793  2.3889 -0.4569
  299PVA     C350668   3.513   4.246   5.253  0.6037 -0.0986  0.5340
  299PVA     H550669   3.525   4.328   5.180  1.2124  1.3141  2.1508
  299PVA     H650670   3.439   4.286   5.323  1.0389  0.2181  0.8227
  299PVA     C450671   3.648   4.238   5.330 -0.3333 -0.4689 -0.5766
  299PVA     H750672   3.634   4.158   5.404 -3.2399  0.0543 -0.4494
  299PVA     H850673   3.732   4.220   5.260  0.2909 -2.0745  0.5132
  299PVA     C550674   3.684   4.365   5.413 -0.2453 -0.2199 -0.2731
  299PVA     H950675   3.600   4.435   5.415 -3.4990 -3.7829 -0.3540
  299PVA     O250676   3.785   4.437   5.340 -0.2412 -0.3229 -0.8157
  299PVA    H1050677   3.750   4.470   5.255  1.6015  0.4528 -1.3214
  299PVA     C650678   3.741   4.340   5.558 -0.1841 -1.0830 -0.9733
  299PVA    H1150679   3.849   4.355   5.544  0.5213 -1.0015  3.1924
  299PVA    H1250680   3.717   4.235   5.575 -4.6185 -0.3308 -1.4956
  299PVA     C750681   3.693   4.438   5.668  0.1425  0.1058  0.2043
  299PVA    H1350682   3.593   4.415   5.707 -0.0453 -2.4510 -1.5517
  299PVA    H1450683   3.693   4.537   5.622 -3.9887 -0.8297 -2.3384
  299PVA     C850684   3.764   4.428   5.800  0.1495  1.1129 -0.4929
  299PVA    H1550685   3.848   4.497   5.783 -0.3021  1.3367 -2.0225
  299PVA     O350686   3.808   4.304   5.840  0.5070 -0.0579  0.9827
  299PVA    H1650687   3.729   4.248   5.842  1.1964 -1.0463  1.3997
  299PVA     C950688   3.680   4.481   5.924 -0.2882 -0.5492 -0.4415
  299PVA    H1750689   3.690   4.587   5.898  0.2309 -0.5615 -0.3048
  299PVA    H1850690   3.571   4.464   5.924  0.0930 -3.6314 -0.5569
  299PVA    C1050691   3.742   4.461   6.063 -0.6340  0.1904 -0.3601
  299PVA    H1950692   3.700   4.365   6.097 -5.1625  1.2579 -2.1468
  299PVA    H2050693   3.851   4.453   6.057 -0.3449  3.1994 -0.1969
  299PVA    C1150694   3.701   4.559   6.181 -0.1472 -0.0962 -0.2325
  299PVA    H2150695   3.759   4.652   6.191  0.3307 -0.5053  0.9518
  299PVA     O450696   3.570   4.616   6.154 -0.5240  0.5122  1.7931
  299PVA    H2250697   3.536   4.564   6.079  3.4014 -2.5569  1.8520
  299PVA    C1250698   3.702   4.501   6.329 -0.1462 -0.9960 -0.8144
  299PVA    H2350699   3.602   4.460   6.348  0.5744 -1.5761  2.2692
  299PVA    H2450700   3.777   4.431   6.366  0.4828  1.3816  2.9975
  299PVA    C1350701   3.698   4.604   6.446 -0.1763  0.8189 -0.3659
  299PVA    H2550702   3.639   4.694   6.426 -1.8212 -0.4469 -1.5263
  299PVA    H2650703   3.803   4.634   6.445 -0.0700  0.8490 -4.3708
  299PVA    C1450704   3.679   4.547   6.604 -0.3456 -0.2410 -0.7421
  299PVA    H2750705   3.758   4.476   6.631 -0.0453  0.7687  1.1796
  299PVA     O550706   3.549   4.509   6.614 -0.4535  0.2022  0.7593
  299PVA    H2850707   3.493   4.529   6.536 -2.2034 -3.4701  0.8637
  299PVA    C1550708   3.711   4.640   6.726  0.1824  0.2357 -0.9068
  299PVA    H2950709   3.615   4.690   6.747 -2.0079 -3.1438 -1.9920
  299PVA    H3050710   3.775   4.722   6.691  1.1401  1.6106  3.4092
  299PVA    C1650711   3.756   4.566   6.862 -0.6551  0.0520 -1.0859
  299PVA    H3150712   3.690   4.483   6.892  1.3715 -0.5820  2.1232
  299PVA    H3250713   3.852   4.513   6.855 -0.4946  0.6071 -4.5386
  299PVA    C1750714   3.759   4.658   6.983  0.3396 -0.0427 -0.7069
  299PVA    H3350715   3.837   4.733   6.964 -0.6161  1.3009  0.4512
  299PVA     O650716   3.636   4.715   7.003  0.3645 -0.3984 -0.7763
  299PVA    H3450717   3.605   4.752   6.918 -4.3037 -3.1372 -0.6066
  299PVA    C1850718   3.793   4.588   7.115 -0.0417  0.3320  0.4346
  299PVA    H3550719   3.716   4.514   7.140  0.2491 -0.1783 -0.1484
  299PVA    H3650720   3.890   4.539   7.102  0.5587  1.7250 -0.6326
  299PVA    C1950721   3.816   4.693   7.238  0.4465 -0.3462  0.7924
  299PVA    H3750722   3.723   4.744   7.265  0.9276  0.0472  1.7605
  299PVA    H3850723   3.886   4.776   7.222  0.5035 -0.4504  0.5002
  299PVA    C2050724   3.865   4.629   7.375 -0.5443 -0.0454 -0.0725
  299PVA    H3950725   3.934   4.547   7.349  0.1906  0.6581 -0.3582
  299PVA     O750726   3.751   4.565   7.427  0.8748  0.5238 -0.3912
  299PVA    H4050727   3.683   4.609   7.373  1.0556 -0.3419 -1.3497
  299PVA    C2150728   3.933   4.724   7.480  0.6625 -0.3020 -0.6319
  299PVA    H4150729   3.999   4.798   7.433  0.8863 -0.3357 -0.3710
  299PVA    H4250730   3.853   4.789   7.518  1.2784  1.2537 -1.8632
  299PVA    C2250731   4.007   4.658   7.605 -0.2109 -0.3752 -0.0492
  299PVA    H4350732   3.944   4.575   7.640 -1.0132 -0.6152 -1.9517
  299PVA    H4450733   4.098   4.612   7.564  0.4645  1.5585 -0.8549
  299PVA    C2350734   4.040   4.737   7.754  0.6416  0.9417  0.3732
  299PVA    H4550735   3.946   4.783   7.784 -0.9785 -2.2129  0.6139
  299PVA     O850736   4.138   4.841   7.741 -0.9271  0.4346 -1.0753
  299PVA    H4650737   4.107   4.913   7.684 -1.4957  0.4207 -0.7847
  299PVA    C2450738   4.086   4.627   7.865 -1.0341 -0.3986  0.4883
  299PVA    H4750739   4.149   4.555   7.812 -3.9348 -1.2828 -1.9920
  299PVA    H4850740   3.998   4.576   7.904 -0.3138 -0.3724  2.2386
  299PVA    C2550741   4.158   4.688   7.987 -0.0037 -0.5759 -0.1499
  299PVA    H4950742   4.224   4.769   7.955 -0.3649 -0.5880 -0.9335
  299PVA    H5050743   4.078   4.742   8.040 -0.1533  2.6659 -3.3346
  299PVA    C2650744   4.235   4.582   8.074  0.3809 -0.8007 -1.1153
  299PVA    H5150745   4.221   4.634   0.073 -1.7062 -1.1021 -1.2175
  299PVA     O950746   4.186   4.456   8.069  0.5882 -0.3231 -0.2592
  299PVA    H5250747   4.090   4.470   8.075  0.7125 -0.1652  2.2622
  299PVA    C2750748   4.394   4.587   8.080 -0.5725 -0.0311 -0.1524
  299PVA    H5350749   4.418   4.687   0.021  0.2999  0.8385 -2.8024
  299PVA    H5450750   4.430   4.580   7.977 -2.9073 -3.0359 -0.8834
  299PVA    C2850751   4.462   4.471   0.071 -0.4285  0.4025  0.0499
  299PVA    H5550752   4.461   4.505   0.175  3.1235 -1.3550  0.8006
  299PVA    H5650753   4.408   4.377   0.053 -0.6876  0.6355 -0.4365
  299PVA    C2950754   4.616   4.445   0.052  0.1020  0.4126 -0.2167
  299PVA    H5750755   4.624   4.429   8.041 -2.1177 -1.3528 -0.1914
  299PVA    O1050756   4.692   4.543   0.096 -0.4838 -0.1813 -0.3583
  299PVA    H5850757   4.624   4.605   0.125  1.4107  1.7587  0.1831
  299PVA    C3050758   4.662   4.318   0.121  0.2212 -0.1334  0.0605
  299PVA    H5950759   4.579   4.255   0.155  1.4136  0.8902  6.1445
  299PVA    H6050760   4.708   4.327   0.221 -2.6223 -0.1728  1.4660
  299PVA    C3150761   4.764   4.238   0.038  0.3192 -0.1052 -0.0335
  299PVA    H6150762   4.731   4.237   8.031  0.1808  1.4539 -0.0358
  299PVA    H6250763   4.861   4.291   0.035  0.1291  0.2216 -0.7888
  299PVA    C3250764   4.790   4.087   0.085 -0.5589 -0.1795  0.8365
  299PVA    H6350765   4.726   4.020   0.026  0.8299  1.0540 -2.3332
  299PVA    O1150766   4.757   4.075   0.217  0.1736  0.3314  0.8465
  299PVA    H6450767   4.711   4.158   0.234  0.0472 -0.2096  3.6601
  299PVA    C3350768   4.930   4.031   0.045 -1.4710 -1.5196 -0.0770
  299PVA    H6550769   5.006   4.101   0.082 -2.1520  0.4359 -2.1219
  299PVA    H6650770   4.959   4.017   8.037  1.9311  1.8508  0.1674
  299PVA    C3450771   4.975   3.885   0.093  0.3528 -0.5319  0.3145
  299PVA    H6750772   5.001   3.894   0.199 -0.1002  1.7378  0.2989
  299PVA    H6850773   4.894   3.813   0.074  1.1131 -1.6703  1.2774
  299PVA    C3550774   5.112   3.830   0.019  0.9549 -0.7500 -0.0505
  299PVA    H6950775   5.112   3.878   8.018 -0.6344  4.4726  2.1523
  299PVA    O1250776   5.234   3.868   0.081 -0.5231 -0.1456 -0.7920
  299PVA    H7050777   5.256   3.962   0.093  3.9975 -1.2411  2.2318
  299PVA    C3650778   5.132   3.670   0.005 -1.6692  0.0721  0.1799
  299PVA    H7150779   5.144   3.625   0.104 -0.3518  1.8921  0.9077
  299PVA    H7250780   5.048   3.626   8.047  1.2922 -1.4192 -3.5545
  299PVA    C3750781   5.264   3.622   8.031 -0.3406 -0.0567 -0.8506
  299PVA    H7350782   5.274   3.659   7.928 -2.7974  4.1386  0.1639
  299PVA    H7450783   5.358   3.649   8.079  0.8786  0.0980 -3.1693
  299PVA    C3850784   5.285   3.467   8.029 -0.3447  0.6522  0.7843
  299PVA    H7550785   5.268   3.430   0.034  1.0049  0.1177  0.8245
  299PVA    O1350786   5.183   3.418   7.945  0.4872 -0.4789  0.2358
  299PVA    H7650787   5.206   3.452   7.857 -0.0841  3.6481  1.4591
  299PVA    C3950788   5.413   3.392   7.980 -0.1197 -0.7682  0.5024
  299PVA    H7750789   5.434   3.442   7.885 -3.5668 -0.8026 -0.4147
  299PVA    H7850790   5.494   3.427   8.045 -2.5653  4.7329  1.0998
  299PVA    C4050791   5.405   3.234   7.971 -0.7582 -0.4753 -1.0428
  299PVA    H7950792   5.414   3.204   8.076 -0.1632  5.2915  0.8816
  299PVA    H8050793   5.313   3.202   7.920 -2.6732  3.8805 -0.8234
  299PVA    C4150794   5.532   3.157   7.920 -1.1165 -0.0927 -0.0872
  299PVA    H8150795   5.599   3.157   8.007  0.0524  1.5961 -0.9318
  299PVA    O1450796   5.584   3.204   7.795 -0.0571 -0.1456 -0.0986
  299PVA    H8250797   5.614   3.294   7.817 -0.8504  0.1742 -0.3088
  299PVA    C4250798   5.499   3.000   7.895 -0.1521  0.3892 -0.0527
  299PVA    H8350799   5.507   2.945   7.990 -2.9236  1.8605  1.1623
  299PVA    H8450800   5.399   2.984   7.852  0.3445  1.9104 -1.9034
  299PVA    C4350801   5.594   2.922   7.800  0.5997  0.1675 -0.5405
  299PVA    H8550802   5.575   2.958   7.698 -0.5456  2.8032  0.5131
  299PVA    H8650803   5.699   2.924   7.831  0.3054  0.2433  0.4725
  299PVA    C4450804   5.562   2.774   7.769 -1.2901  0.4004  0.1392
  299PVA    H8750805   5.570   2.721   7.865 -0.2813  1.5133  0.6993
  299PVA    O1550806   5.424   2.750   7.750  0.1481  0.0667 -0.0206
  299PVA    H8850807   5.407   2.656   7.768 -1.7010  0.2726 -0.4845
  299PVA    C4550808   5.658   2.699   7.668 -0.6621 -0.2991  1.3837
  299PVA    H8950809   5.762   2.700   7.704 -1.3193 -3.8480  3.9069
  299PVA    H9050810   5.678   2.757   7.577 -0.5697 -5.7135 -2.5271
  299PVA    C4650811   5.617   2.554   7.624  0.1291  0.3981 -1.0941
  299PVA    H9150812   5.595   2.502   7.718  3.0007  2.9599  1.1575
  299PVA    H9250813   5.527   2.532   7.564 -1.8942 -1.7713  2.3598
  299PVA    C4750814   5.733   2.474   7.547 -0.7216 -0.6346  1.2141
  299PVA    H9350815   5.762   2.531   7.458 -1.1369 -2.5427 -0.2015
  299PVA    O1650816   5.843   2.445   7.626  0.3234  0.2029  0.4789
  299PVA    H9450817   5.910   2.410   7.564  1.4545  2.5436  0.2585
  299PVA    C4850818   5.684   2.325   7.481  0.2161 -0.4072 -1.1338
  299PVA    H9550819   5.574   2.327   7.486  0.2153  1.6801  3.7861
  299PVA    H9650820   5.711   2.320   7.375 -0.6671  0.8640 -1.4532
  299PVA    C4950821   5.750   2.203   7.546 -0.7000 -0.1495  1.2546
  299PVA    H9750822   5.722   2.191   7.652  1.8628  0.9342  2.1257
  299PVA    H9850823   5.859   2.214   7.547 -0.5230 -1.5371 -0.1449
  299PVA    C5050824   5.729   2.071   7.487 -0.0168  0.4122  0.1585
  299PVA    H9950825   5.778   2.079   7.389 -0.9379  2.0789 -0.2125
  299PVA    O1750826   5.584   2.035   7.478 -0.0417 -1.0159  0.3037
  299PVA   H10050827   5.543   2.061   7.562  0.9148 -3.0142  1.4680
  299PVA    C5150828   5.808   1.967   7.573  0.5138  0.4316 -0.7896
  299PVA   H10150829   5.906   2.001   7.607  2.0668 -3.3200 -1.0480
  299PVA   H10250830   5.761   1.949   7.670  1.7326 -5.9861 -0.9837
  300PVA     C150831   6.109   5.250   1.903  0.5272  0.0981  1.0289
  300PVA     H150832   6.204   5.296   1.874  1.1733 -1.5267  0.4338
  300PVA     H250833   6.131   5.181   1.985 -1.0208  1.7457  2.9396
  300PVA     C250834   6.020   5.360   1.960 -0.6643 -0.7418 -0.6100
  300PVA     H350835   5.975   5.416   1.877  3.5125 -0.8477 -3.2807
  300PVA     O150836   5.917   5.301   2.026 -0.2185  1.0280 -0.1763
  300PVA     H450837   5.896   5.244   1.950  2.5648  2.7859 -2.4946
  300PVA     C350838   6.095   5.473   2.048  0.3188 -1.1633  0.8801
  300PVA     H550839   6.178   5.503   1.983  0.8020 -2.4630  0.8645
  300PVA     H650840   6.132   5.421   2.137  1.2821 -3.9614 -0.9898
  300PVA     C450841   6.011   5.600   2.106  0.4596 -0.6458 -1.1698
  300PVA     H750842   5.942   5.635   2.029 -0.2843 -0.3474 -0.3734
  300PVA     H850843   5.945   5.559   2.182 -1.0984  4.5735  0.7240
  300PVA     C550844   6.102   5.726   2.159  0.2793 -0.2410 -0.7661
  300PVA     H950845   6.157   5.692   2.248  1.9900  0.4637 -1.5015
  300PVA     O250846   6.198   5.783   2.069  0.1818  0.9076 -0.0973
  300PVA    H1050847   6.288   5.749   2.087  1.9048  4.0809 -1.7640
  300PVA     C650848   6.028   5.860   2.220 -1.1380  0.3918  0.1428
  300PVA    H1150849   5.923   5.870   2.191 -1.3327 -0.9512  0.3266
  300PVA    H1250850   6.018   5.831   2.326  1.4287 -4.6932 -0.7389
  300PVA     C750851   6.112   5.997   2.220  1.4109 -0.6275 -0.8517
  300PVA    H1350852   6.126   6.039   2.120  0.9965 -0.2300 -0.7439
  300PVA    H1450853   6.202   5.986   2.281 -0.8257  0.3059  2.9768
  300PVA     C850854   6.031   6.123   2.299 -0.4215  1.2318  0.6734
  300PVA    H1550855   5.930   6.113   2.258 -0.0444 -3.4141  0.3394
  300PVA     O350856   6.016   6.093   2.437 -1.2937  0.1481  0.0867
  300PVA    H1650857   6.075   6.157   2.480 -5.1855  0.8480  5.4229
  300PVA     C950858   6.100   6.262   2.265 -1.4156  0.5691  0.6471
  300PVA    H1750859   6.127   6.262   2.159  1.9654  2.1016  1.3896
  300PVA    H1850860   6.194   6.250   2.321 -0.4065  1.3500 -0.8106
  300PVA    C1050861   6.020   6.384   2.306  0.9182 -0.1104 -0.0867
  300PVA    H1950862   5.953   6.411   2.224  1.9388 -1.7220 -1.5197
  300PVA    H2050863   5.954   6.375   2.394 -2.2492  1.1650 -2.1437
  300PVA    C1150864   6.093   6.519   2.321 -0.7263  0.2725  0.3290
  300PVA    H2150865   6.128   6.537   2.219 -0.6775  2.0080  0.6097
  300PVA     O450866   6.209   6.501   2.402 -1.5006  0.0961 -0.4509
  300PVA    H2250867   6.179   6.497   2.495  2.4511 -0.4830  0.9846
  300PVA    C1250868   6.016   6.643   2.368 -0.0660 -0.6261 -1.1042
  300PVA    H2350869   5.937   6.646   2.292 -1.5504 -2.4901  0.2591
  300PVA    H2450870   5.949   6.607   2.448  0.8811 -4.2382 -1.7711
  300PVA    C1350871   6.092   6.775   2.422  0.2992  0.5960 -0.5524
  300PVA    H2550872   6.153   6.819   2.342 -0.7751 -0.5411 -2.0501
  300PVA    H2650873   6.162   6.761   2.505  0.0437  1.7834 -0.1214
  300PVA    C1450874   6.004   6.909   2.460 -0.5381  0.7801 -0.4661
  300PVA    H2750875   5.944   6.887   2.549  0.0919  0.7142 -0.0451
  300PVA     O550876   5.910   6.943   2.369 -0.3848 -0.1994 -1.1927
  300PVA    H2850877   5.967   6.966   2.294 -2.9840 -5.3087 -5.4611
  300PVA    C1550878   6.087   7.033   2.495  1.4841  0.7703 -0.0656
  300PVA    H2950879   6.132   7.061   2.399 -3.5062 -1.2621 -3.4228
  300PVA    H3050880   6.171   6.999   2.557 -0.1534 -0.3547  1.6161
  300PVA    C1650881   6.013   7.152   2.569 -0.8331  0.7448 -0.4111
  300PVA    H3150882   5.929   7.092   2.606  0.5371 -2.8847 -2.6085
  300PVA    H3250883   6.065   7.174   2.663 -1.5531 -0.9696  0.4467
  300PVA    C1750884   5.965   7.277   2.502  0.4548 -1.1943  0.6743
  300PVA    H3350885   5.930   7.263   2.399 -2.8610 -2.2596  1.8024
  300PVA     O650886   5.844   7.321   2.564 -0.5670 -0.0362  0.2861
  300PVA    H3450887   5.792   7.242   2.541  1.4067 -1.1702 -0.5611
  300PVA    C1850888   6.059   7.409   2.500  0.8485 -0.2919  0.0098
  300PVA    H3550889   6.068   7.439   2.605  2.7282 -0.3826 -0.0939
  300PVA    H3650890   6.162   7.388   2.468  0.7743 -0.8715  0.1393
  300PVA    C1950891   5.994   7.516   2.403 -0.1750 -0.5105 -0.4012
  300PVA    H3750892   6.009   7.467   2.306 -0.7361  0.0629 -0.7889
  300PVA    H3850893   5.887   7.531   2.420 -0.0793  1.0693 -0.9868
  300PVA    C2050894   6.055   7.658   2.391 -0.5340  0.0799 -0.3036
  300PVA    H3950895   6.015   0.035   2.472  0.2336 -1.1324  1.0213
  300PVA     O750896   6.200   7.648   2.384  0.3707  0.9573  0.5335
  300PVA    H4050897   6.232   7.677   2.471  2.4759  2.1009 -0.5532
  300PVA    C2150898   6.000   0.055   2.269 -0.9254 -0.4356  0.1670
  300PVA    H4150899   5.899   0.094   2.287 -1.2484 -1.3562  0.3687
  300PVA    H4250900   6.003   0.005   2.172  3.0251 -0.6750  0.2474
  300PVA    C2250901   6.075   0.191   2.234 -0.2831  0.3571  0.2654
  300PVA    H4350902   6.075   0.259   2.320 -0.2880 -1.6157  1.9127
  300PVA    H4450903   6.183   0.173   2.238 -0.1137  1.3608  0.3912
  300PVA    C2350904   6.032   0.295   2.121 -0.2443  1.1282  0.9526
  300PVA    H4550905   5.925   0.319   2.123 -1.4973 -3.2215 -1.1331
  300PVA     O850906   6.031   0.208   2.006  0.0790 -0.3188 -0.0943
  300PVA    H4650907   5.940   0.174   2.003 -0.4130  0.9529 -3.5210
  300PVA    C2450908   6.111   0.427   2.106  0.1907  0.6317  0.5663
  300PVA    H4750909   6.107   0.455   2.212  6.8491  2.2820  0.8564
  300PVA    H4850910   6.218   0.405   2.092 -0.5885 -2.1302 -1.9798
  300PVA    C2550911   6.062   0.547   2.004 -1.0653  0.7149  0.0179
  300PVA    H4950912   5.963   0.572   2.045 -1.1814 -0.7930  0.7358
  300PVA    H5050913   6.056   0.498   1.906 -0.2092  0.5345  0.0513
  300PVA    C2650914   6.147   0.676   1.994 -0.5512  0.0384  0.7304
  300PVA    H5150915   6.254   0.653   1.999 -0.9686 -2.6762 -0.8445
  300PVA     O950916   6.110   0.759   2.103  0.0773  0.2538 -0.0581
  300PVA    H5250917   6.196   0.797   2.131  0.9633 -0.5827 -1.5522
  300PVA    C2750918   6.147   0.764   1.861  0.9886  0.2585 -0.8507
  300PVA    H5350919   6.119   0.693   1.782  1.8016 -0.3638 -0.5943
  300PVA    H5450920   6.061   0.831   1.854 -0.1200 -0.7752  1.5259
  300PVA    C2850921   6.277   0.837   1.832  1.0447 -0.2846  0.3728
  300PVA    H5550922   6.290   0.912   1.911  1.4859 -0.7259  0.7248
  300PVA    H5650923   6.339   0.747   1.840 -1.9397 -2.3088  3.5569
  300PVA    C2950924   6.294   0.890   1.684  0.4735 -0.1137  0.1478
  300PVA    H5750925   6.324   0.807   1.618 -0.2495 -1.1813  1.1244
  300PVA    O1050926   6.173   0.945   1.636 -0.1356  0.1972  0.0848
  300PVA    H5850927   6.100   0.896   1.676  1.7552 -1.5996  1.5550
  300PVA    C3050928   6.408   0.997   1.667  1.0896  0.0545  0.1009
  300PVA    H5950929   6.362   1.094   1.648 -0.5112 -0.2095  2.2503
  300PVA    H6050930   6.470   0.999   1.757 -0.0416 -0.7253  0.9368
  300PVA    C3150931   6.502   0.953   1.553 -0.2114 -0.2749  0.3129
  300PVA    H6150932   6.442   0.909   1.473  0.3565  1.5335 -1.1845
  300PVA    H6250933   6.563   0.871   1.593  1.1569 -0.7478 -2.4812
  300PVA    C3250934   6.600   1.049   1.481  0.8116 -0.0788  0.7175
  300PVA    H6350935   6.676   1.086   1.551 -1.7227  1.3828  2.9189
  300PVA    O1150936   6.522   1.161   1.426  0.0465 -0.1040 -0.1737
  300PVA    H6450937   6.440   1.136   1.380 -1.5094  0.9076  1.8464
  300PVA    C3350938   6.690   0.980   1.375  0.4088 -0.0821  0.3722
  300PVA    H6550939   6.662   0.877   1.402  1.4204  0.2934  3.1884
  300PVA    H6650940   6.799   0.980   1.386  0.4055  0.8515  0.4575
  300PVA    C3450941   6.679   1.014   1.218 -0.6899  1.0377 -0.0046
  300PVA    H6750942   6.712   1.114   1.189 -1.5703  1.7849  1.4643
  300PVA    H6850943   6.573   1.005   1.192 -0.5691 -2.7278  0.2848
  300PVA    C3550944   6.765   0.925   1.117 -0.4568  0.8775 -0.3991
  300PVA    H6950945   6.866   0.953   1.084  1.2896 -0.7601  3.0458
  300PVA    O1250946   6.816   0.814   1.177 -0.2794  0.6452  0.5928
  300PVA    H7050947   6.745   0.747   1.177 -0.8652  1.1579 -2.0416
  300PVA    C3650948   6.686   0.899   0.982  0.3173  0.1376 -0.1574
  300PVA    H7150949   6.707   0.993   0.930 -0.0079  1.8221  2.5421
  300PVA    H7250950   6.577   0.894   0.999  0.4062 -0.2495  0.3338
  300PVA    C3750951   6.739   0.772   0.890  0.9494 -0.4613 -0.6209
  300PVA    H7350952   6.652   0.705   0.889 -0.3975  1.2235 -1.0045
  300PVA    H7450953   6.821   0.725   0.945  0.8743 -0.0522 -0.1507
  300PVA    C3850954   6.766   0.789   0.733  1.3702  0.5173 -0.3509
  300PVA    H7550955   6.871   0.761   0.726  0.8140 -1.4698 -1.5965
  300PVA    O1350956   6.755   0.921   0.703  0.4094 -0.8440 -0.3940
  300PVA    H7650957   6.666   0.938   0.739  0.3543 -0.6846 -0.6079
  300PVA    C3950958   6.705   0.695   0.615 -0.8565 -0.2411 -0.3827
  300PVA    H7750959   6.601   0.668   0.637 -0.5773  0.3166  1.7990
  300PVA    H7850960   6.765   0.603   0.615  0.7588  0.7670 -1.3221
  300PVA    C4050961   6.720   0.761   0.471  0.0930  1.2159 -0.8162
  300PVA    H7950962   6.703   0.868   0.481  1.1015  1.2028  2.2027
  300PVA    H8050963   6.822   0.741   0.436 -1.2711 -6.2633 -2.3960
  300PVA    C4150964   6.608   0.719   0.362  0.1884  0.8799 -0.2168
  300PVA    H8150965   6.519   0.696   0.422 -0.2729  2.5245 -0.2095
  300PVA    O1450966   6.649   0.602   0.298 -0.6501  0.3098 -0.4889
  300PVA    H8250967   6.706   0.628   0.224 -0.2830  0.9770  0.0151
  300PVA    C4250968   6.571   0.828   0.258 -0.7874 -1.0751  0.2554
  300PVA    H8350969   6.586   0.929   0.298  2.2962 -2.4402  3.0332
  300PVA    H8450970   6.642   0.817   0.174  0.7173 -1.5851  1.5447
  300PVA    C4350971   6.428   0.825   0.185 -0.2256 -0.0162  0.8940
  300PVA    H8550972   6.348   0.875   0.240 -0.0791  0.7614  0.4063
  300PVA    H8650973   6.399   0.719   0.185  0.8806 -0.3291  1.8059
  300PVA    C4450974   6.423   0.875   0.040  0.7028 -0.8541  0.2280
  300PVA    H8750975   6.482   0.811   8.071  0.5136 -2.1318  1.2682
  300PVA    O1550976   6.487   1.008   0.038  0.1314 -0.6998  0.1765
  300PVA    H8850977   6.500   1.037   0.130 -0.0072  1.5692 -0.4636
  300PVA    C4550978   6.278   0.902   8.095 -0.0560 -0.2837  0.0508
  300PVA    H8950979   6.241   0.981   0.064  3.1166 -2.4662  4.9883
  300PVA    H9050980   6.231   0.804   0.011 -2.3945  0.3803 -2.2891
  300PVA    C4650981   6.253   0.948   7.951 -0.0965  0.8061  0.8771
  300PVA    H9150982   6.342   0.940   7.887  2.1070  0.6629  3.7363
  300PVA    H9250983   6.171   0.892   7.905  1.6855  0.2955 -1.9286
  300PVA    C4750984   6.207   1.094   7.936 -0.4580  0.0094 -0.3977
  300PVA    H9350985   6.128   1.119   8.008  0.1535 -1.0500  0.6743
  300PVA    O1650986   6.332   1.171   7.957 -0.9847 -1.3719  0.0966
  300PVA    H9450987   6.406   1.124   7.999  0.2277  1.1272  0.9896
  300PVA    C4850988   6.155   1.143   7.797 -0.2284 -0.4591 -0.0934
  300PVA    H9550989   6.238   1.156   7.726  1.1495 -2.9963  0.9227
  300PVA    H9650990   6.084   1.061   7.779  0.3587 -0.9286 -0.3005
  300PVA    C4950991   6.069   1.276   7.817 -0.4636  0.3694 -0.0320
  300PVA    H9750992   6.146   1.348   7.845  0.5707  0.3059 -2.4411
  300PVA    H9850993   6.013   1.267   7.911  0.9814 -0.8799  0.7562
  300PVA    C5050994   5.986   1.349   7.710 -0.6500 -0.9352  0.1858
  300PVA    H9950995   6.026   1.319   7.612 -2.4208  0.0468 -0.9062
  300PVA    O1750996   5.857   1.293   7.720 -0.2338  0.1706  0.0646
  300PVA   H10050997   5.816   1.363   7.667 -1.5115 -0.4824  0.1572
  300PVA    C5150998   5.979   1.505   7.721 -0.0121 -0.8144 -0.9395
  300PVA   H10150999   5.921   1.536   7.809  1.9009 -1.1156  0.4848
  300PVA   H10251000   6.083   1.532   7.742 -0.8407  0.3495  2.1594
  301GLU     C151001   5.039   0.558   3.145 -0.4306  0.3206  0.2420
  301GLU     C251002   5.044   0.717   3.169  0.0698  0.2881  0.5219
  301GLU     C351003   5.072   0.776   3.312  0.2334 -1.0850 -0.3207
  301GLU     O151004   5.083   0.654   3.387 -0.6136  0.3095 -0.4228
  301GLU     C451005   5.191   0.560   3.328 -0.3127  0.3634  1.0131
  301GLU     C551006   5.186   0.423   3.404 -0.1706 -0.1106  0.4783
  301GLU     C651007   5.265   0.308   3.336 -0.7044 -0.5117  0.8542
  301GLU     C751008   5.288   0.193   3.439  0.7184 -0.2913  0.2972
  301GLU     C851009   5.167   0.107   3.468  1.1519 -0.0905  0.2503
  301GLU     O251010   5.163   7.661   3.397 -0.4320  0.1518  0.2324
  301GLU     C951011   5.092   7.548   3.443 -0.0905 -0.1543  0.2120
  301GLU    C1051012   4.971   7.598   3.521 -0.5923  1.0907 -0.4957
  301GLU    C1151013   5.018   0.016   3.634  0.0352  0.6581  0.0294
  301GLU     O351014   5.156   0.067   3.610 -0.4811 -0.8681 -0.0208
  301GLU     O451015   5.164   0.528   3.195  0.4914  0.2085  0.4813
  301GLU     H151016   4.962   0.514   3.211  0.1384 -0.5422  0.3447
  301GLU     H251017   4.948   0.765   3.149 -2.0520 -3.0807  1.7041
  301GLU     H351018   5.112   0.769   3.101  1.1758  1.3051  2.3450
  301GLU     H451019   5.168   0.829   3.310  0.1926 -1.0267 -1.4741
  301GLU     H551020   5.293   0.598   3.321 -0.5605  0.9708  0.5837
  301GLU     H651021   5.078   0.404   3.405 -0.9787  1.9734 -5.4826
  301GLU     H751022   5.223   0.438   3.506  2.0862  0.2453 -0.3280
  301GLU     H851023   5.365   0.347   3.314 -1.7730  2.0129  0.1700
  301GLU     H951024   5.203   0.276   3.252 -3.2660  1.0635  2.0332
  301GLU    H1051025   5.346   0.215   3.529 -1.0212  2.4347  0.8802
  301GLU    H1151026   5.351   0.124   3.382  0.4015  0.9096 -1.6060
  301GLU    H1251027   5.072   0.160   3.453 -1.1155 -3.0769  2.6548
  301GLU    H1351028   5.153   7.494   3.516 -0.5103 -0.1034  0.5993
  301GLU    H1451029   4.901   7.530   3.572 -3.2768  3.5016 -0.7014
  301GLU    H1551030   4.888   7.634   3.459 -2.6734 -2.6093 -0.1541
  301GLU    H1651031   4.953   0.103   3.619  2.0342  2.1541 -0.3904
  302GLU     C151032   6.704   0.701   4.260 -0.9631  0.5476 -0.4841
  302GLU     C251033   6.802   0.688   4.391  0.9307 -0.2782 -0.1079
  302GLU     C351034   6.779   0.793   4.514  0.6737 -0.0670  0.7604
  302GLU     O151035   6.731   0.913   4.450 -0.2596  0.6859  0.2916
  302GLU     C451036   6.606   0.902   4.377  0.1638 -0.2055  0.9318
  302GLU     C551037   6.579   1.028   4.296  0.5525  0.0905  0.3917
  302GLU     C651038   6.556   1.161   4.381 -0.0716  0.6429  0.2846
  302GLU     C751039   6.454   1.140   4.501  0.1024  0.6012 -0.3463
  302GLU     C851040   6.533   1.099   4.630 -0.2382 -0.6130 -0.1150
  302GLU     O251041   6.613   1.213   4.666 -0.4185  0.4972  0.4755
  302GLU     C951042   6.583   1.271   4.797 -0.0253  1.0012  0.0674
  302GLU    C1051043   6.437   1.294   4.797  0.0112 -0.9742 -0.5659
  302GLU    C1151044   6.361   1.162   4.782 -0.3418 -0.0189 -0.0112
  302GLU     O351045   6.447   1.051   4.732 -0.2758  0.2192  0.1561
  302GLU     O451046   6.594   0.782   4.290 -0.6551 -1.0555  0.1197
  302GLU     H151047   6.768   0.755   4.188  0.9145 -2.3121 -1.1407
  302GLU     H251048   6.910   0.698   4.371  1.1396  0.6552  1.2817
  302GLU     H351049   6.803   0.587   4.432  2.4785  1.2442  4.2520
  302GLU     H451050   6.695   0.754   4.573 -0.6855 -0.0927 -1.1059
  302GLU     H551051   6.524   0.895   4.449  1.0293  1.7812  2.1971
  302GLU     H651052   6.484   1.023   4.242  0.7217 -0.6250  0.1576
  302GLU     H751053   6.656   1.035   4.218  0.9540 -0.2012  0.7545
  302GLU     H851054   6.527   1.247   4.320  0.5011 -0.5708 -1.8056
  302GLU     H951055   6.653   1.181   4.430 -0.6209 -1.9526  2.7129
  302GLU    H1051056   6.378   1.062   4.484 -1.5063  1.3666  2.6128
  302GLU    H1151057   6.404   1.237   4.515  0.2003  0.4485  1.3310
  302GLU    H1251058   6.601   1.016   4.607  2.2083  1.8148 -2.1723
  302GLU    H1351059   6.615   1.204   4.879  2.9798  1.8795 -0.2611
  302GLU    H1451060   6.406   1.365   4.719 -1.2259 -1.8959 -0.9445
  302GLU    H1551061   6.408   1.337   4.893 -0.8280 -0.4748 -1.0296
  302GLU    H1651062   6.270   1.179   4.722 -2.5450  0.3092  3.1808
  303GLU     C151063   2.691   4.023   7.452 -1.0510 -0.4296 -0.8360
  303GLU     C251064   2.580   3.949   7.526  1.1006  0.6511  0.1540
  303GLU     C351065   2.623   3.873   7.660 -0.8227 -0.9473  1.3388
  303GLU     O151066   2.725   3.967   7.714 -0.7314  0.3822 -0.7814
  303GLU     C451067   2.719   4.109   7.691  0.0387  1.4642 -0.5394
  303GLU     C551068   2.831   4.185   7.767  0.1863  0.4273  0.4620
  303GLU     C651069   2.803   4.204   7.929 -0.5083  1.1272  0.8588
  303GLU     C751070   2.897   4.291   8.013 -0.6262 -0.9435 -0.2828
  303GLU     C851071   2.876   4.324   0.073 -0.2428  1.0669  0.4920
  303GLU     O251072   3.006   4.342   0.146 -0.6598  0.6880 -0.2952
  303GLU     C951073   2.997   4.332   0.299 -0.4654 -0.1277  0.5795
  303GLU    C1051074   2.878   4.423   0.336 -0.1041 -0.4379  1.4854
  303GLU    C1151075   2.806   4.516   0.217  0.1063 -0.6815 -1.2640
  303GLU     O351076   2.793   4.437   0.094 -0.2001  0.3226 -0.0639
  303GLU     O451077   2.735   4.128   7.550 -0.5806  0.0903  0.3493
  303GLU     H151078   2.783   3.963   7.450  0.2456  1.1666  2.4321
  303GLU     H251079   2.529   3.870   7.470  0.2507  0.4758  1.1486
  303GLU     H351080   2.500   4.021   7.545  0.1659 -0.8353  2.3631
  303GLU     H451081   2.687   3.788   7.633 -0.6448 -1.6173  3.5985
  303GLU     H551082   2.630   4.147   7.742  0.6031  4.4011 -1.5809
  303GLU     H651083   2.860   4.279   7.719  3.5394  0.8680  2.9684
  303GLU     H751084   2.922   4.124   7.772 -1.0888 -1.4654  4.3486
  303GLU     H851085   2.805   4.106   7.977  2.3972 -0.2872 -1.7661
  303GLU     H951086   2.702   4.245   7.939  0.4965  3.7554  1.0419
  303GLU    H1051087   2.927   4.381   7.959  1.9347 -2.2954 -1.2948
  303GLU    H1151088   2.996   4.244   8.007  1.0713  2.4215 -0.8936
  303GLU    H1251089   2.822   4.229   0.084 -0.6523  1.1427 -0.6212
  303GLU    H1351090   2.966   4.232   0.335  0.3524  0.9754  4.9989
  303GLU    H1451091   2.918   4.488   0.415  1.2781  0.7485 -0.1197
  303GLU    H1551092   2.808   4.360   0.393  0.1886 -0.6672  1.5900
  303GLU    H1651093   2.876   4.597   0.193  0.9001 -1.4940 -1.7350
  304GLU     C151094   5.573   7.255   3.621  0.2815  0.8098 -0.2848
  304GLU     C251095   5.575   7.338   3.486  0.5832  0.7813 -1.3865
  304GLU     C351096   5.432   7.362   3.428  0.1664  0.5895 -0.3131
  304GLU     O151097   5.344   7.251   3.458  0.3379 -0.4176  0.1151
  304GLU     C451098   5.327   7.233   3.601 -0.5819  0.6820  0.3332
  304GLU     C551099   5.220   7.117   3.631  0.4288  0.5988  0.9946
  304GLU     C651100   5.251   6.974   3.567 -0.2471 -0.4163 -0.4389
  304GLU     C751101   5.146   6.874   3.610  0.3404 -0.9295  0.1268
  304GLU     C851102   5.165   6.716   3.595 -0.5992  0.2907 -0.1556
  304GLU     O251103   5.064   6.654   3.679 -0.1264 -0.8671 -0.6596
  304GLU     C951104   5.043   6.514   3.662  0.5768 -0.0146 -0.3903
  304GLU    C1051105   4.988   6.501   3.518  0.7471  0.8087 -1.2114
  304GLU    C1151106   5.054   6.592   3.407  0.5585 -0.6461 -0.9155
  304GLU     O351107   5.174   6.661   3.459 -0.2108 -0.4475 -0.5192
  304GLU     O451108   5.452   7.179   3.642 -0.3641  0.1126 -0.5703
  304GLU     H151109   5.661   7.189   3.620 -1.3650 -1.8468  3.9947
  304GLU     H251110   5.633   7.283   3.411 -0.5101  0.2425 -1.8701
  304GLU     H351111   5.630   7.433   3.494 -0.0993  1.6948 -5.2550
  304GLU     H451112   5.396   7.454   3.477 -1.5331 -0.0979 -0.2231
  304GLU     H551113   5.300   7.324   3.655 -0.0648 -1.1894  4.0040
  304GLU     H651114   5.124   7.148   3.588  2.5432 -0.0657 -5.2449
  304GLU     H751115   5.189   7.114   3.736 -0.1195  2.1705  0.9043
  304GLU     H851116   5.337   6.937   3.623 -1.2394 -1.3252  0.5450
  304GLU     H951117   5.254   6.966   3.458  0.3201 -0.3756 -0.4274
  304GLU    H1051118   5.052   6.894   3.558  0.3389 -3.9226 -1.2332
  304GLU    H1151119   5.123   6.883   3.717  0.0227  2.3628 -0.0950
  304GLU    H1251120   5.268   6.700   3.630 -1.0768 -1.0514  0.7113
  304GLU    H1351121   5.141   6.464   3.657  1.2636  1.0255  1.4077
  304GLU    H1451122   4.883   6.528   3.504 -0.3031 -1.2761  1.5880
  304GLU    H1551123   4.988   6.394   3.496 -1.7363  0.8918 -1.8543
  304GLU    H1651124   4.976   6.667   3.391 -0.5538 -2.0661 -2.5423
  305GLU     C151125   2.995   2.292   0.638  0.4372 -0.8391  1.2827
  305GLU     C251126   2.988   2.413   0.533 -0.1235 -0.3178  0.3515
  305GLU     C351127   3.038   2.554   0.588  1.3038 -0.3919 -0.6615
  305GLU     O151128   3.144   2.531   0.682  0.2975 -0.6526 -0.1897
  305GLU     C451129   3.157   2.405   0.754  0.2620  0.0301  0.1168
  305GLU     C551130   3.207   2.425   0.897 -0.1777 -1.2091  0.3602
  305GLU     C651131   3.172   2.325   0.987 -0.3598  1.2768 -0.8991
  305GLU     C751132   3.291   2.295   1.093  0.5180  0.8985 -0.1864
  305GLU     C851133   3.245   2.315   1.246 -0.9030 -0.4876  0.2400
  305GLU     O251134   3.235   2.182   1.312 -0.3328 -1.0508 -0.1595
  305GLU     C951135   3.186   2.202   1.448 -1.0650  0.3144 -0.3615
  305GLU    C1051136   3.307   2.259   1.530 -0.8440  0.4326 -0.9915
  305GLU    C1151137   3.404   2.342   1.437 -0.0444  1.0952 -0.5815
  305GLU     O351138   3.349   2.398   1.311 -0.3853  0.1345  0.9189
  305GLU     O451139   3.027   2.341   0.770 -0.0809 -0.8637 -1.2187
  305GLU     H151140   3.080   2.223   0.625 -0.8191 -2.0315 -1.2238
  305GLU     H251141   2.886   2.419   0.494  0.6558 -1.2428 -2.0076
  305GLU     H351142   3.053   2.364   0.459 -0.4187 -0.8170  0.4244
  305GLU     H451143   2.968   2.593   0.663  1.3447 -0.6720 -0.4766
  305GLU     H551144   3.222   2.340   0.695  1.6943 -3.2137  4.7091
  305GLU     H651145   3.158   2.520   0.925  0.6863  0.1812 -2.4661
  305GLU     H751146   3.316   2.419   0.885  0.1486  2.9154 -0.4003
  305GLU     H851147   3.152   2.223   0.955 -2.8105 -0.0694  3.9098
  305GLU     H951148   3.080   2.344   1.044  0.0567  0.9297 -0.0936
  305GLU    H1051149   3.374   2.366   1.084  1.4388 -0.1072  0.0746
  305GLU    H1151150   3.331   2.194   1.078  2.8605  1.4601  1.5907
  305GLU    H1251151   3.147   2.361   1.263 -1.6822 -2.1217  0.2978
  305GLU    H1351152   3.113   2.283   1.460  1.7708  2.8608  0.9935
  305GLU    H1451153   3.368   2.186   1.585  0.4982  1.4858 -1.0094
  305GLU    H1551154   3.244   2.316   1.599 -2.6248 -3.6175  1.0085
  305GLU    H1651155   3.479   2.266   1.411  1.1599  1.1088  2.4369
  306GLU     C151156   1.687   6.979   6.881 -1.2507 -0.8311  0.1726
  306GLU     C251157   1.749   7.082   6.786 -0.3144  0.3681 -0.8555
  306GLU     C351158   1.880   7.024   6.737 -0.0972 -0.2324  0.0901
  306GLU     O151159   1.850   6.920   6.649 -0.0621  0.0855 -0.0151
  306GLU     C451160   1.765   6.811   6.696  0.8765  0.0023 -0.2315
  306GLU     C551161   1.865   6.692   6.736 -0.2078 -0.5286 -1.0470
  306GLU     C651162   1.994   6.680   6.645 -0.1925 -0.1080 -0.4608
  306GLU     C751163   1.969   6.653   6.492  0.3255 -0.8813  0.6984
  306GLU     C851164   2.103   6.653   6.424  0.6673 -0.3575  0.7082
  306GLU     O251165   2.096   6.609   6.286 -0.1325  0.1990  0.7473
  306GLU     C951166   2.221   6.633   6.209 -0.0843 -0.3070  0.7263
  306GLU    C1051167   2.232   6.784   6.219  0.1631 -1.5738  0.6405
  306GLU    C1151168   2.264   6.826   6.371 -0.2920  0.1492 -0.1007
  306GLU     O351169   2.149   6.786   6.442  0.7038 -0.4561 -0.5992
  306GLU     O451170   1.680   6.855   6.811 -0.6596  0.3700  1.0750
  306GLU     H151171   1.746   6.967   6.973  1.9936 -1.5739 -1.8182
  306GLU     H251172   1.773   7.180   6.829 -0.7904  1.7085 -3.4408
  306GLU     H351173   1.680   7.128   6.714 -1.4268  4.0498  2.2265
  306GLU     H451174   1.930   6.983   6.826 -2.6746  6.0001  5.2517
  306GLU     H551175   1.693   6.773   6.624  1.7621 -0.5324 -0.8519
  306GLU     H651176   1.810   6.597   6.735  3.8955 -3.2348  1.6664
  306GLU     H751177   1.879   6.719   6.841 -3.7392  0.4550 -0.7091
  306GLU     H851178   2.055   6.598   6.685  1.5821  3.1236  4.5266
  306GLU     H951179   2.039   6.779   6.663  0.4987 -0.4402 -0.3273
  306GLU    H1051180   1.917   6.736   6.443  2.3372 -0.0703 -0.1708
  306GLU    H1151181   1.919   6.556   6.486 -1.7318  0.2011 -0.3324
  306GLU    H1251182   2.179   6.585   6.464  0.9888 -3.4975 -4.3085
  306GLU    H1351183   2.304   6.589   6.265  0.9485  1.5188  0.7059
  306GLU    H1451184   2.129   6.817   6.201 -0.8183 -4.0724  1.2670
  306GLU    H1551185   2.284   6.853   6.151 -0.2919  0.1133  1.9513
  306GLU    H1651186   2.287   6.932   6.358  2.8699  0.0809  3.2622
  307GLU     C151187   5.379   5.303   3.283 -0.6297  0.0392  0.6252
  307GLU     C251188   5.386   5.219   3.413 -0.4566  0.4546  0.5061
  307GLU     C351189   5.294   5.273   3.525 -1.1088  0.8675  1.1754
  307GLU     O151190   5.290   5.408   3.540 -0.1943 -0.1149  0.9953
  307GLU     C451191   5.272   5.501   3.422  0.8973  0.1285  0.0768
  307GLU     C551192   5.343   5.641   3.466 -0.9862  0.2183  0.6401
  307GLU     C651193   5.308   5.696   3.608  0.9487  0.7811  0.5514
  307GLU     C751194   5.153   5.681   3.650  0.1700  1.0054 -0.6262
  307GLU     C851195   5.119   5.785   3.757 -0.0292 -0.2817 -0.3942
  307GLU     O251196   4.983   5.832   3.733  1.7391 -0.4272 -0.2049
  307GLU     C951197   4.888   5.763   3.816 -0.2778 -0.4940  0.3633
  307GLU    C1051198   4.923   5.788   3.964  0.4367 -0.3169  0.1467
  307GLU    C1151199   5.072   5.810   3.990  0.0982  0.0935  0.2338
  307GLU     O351200   5.144   5.732   3.884 -0.8616  1.4365 -0.9947
  307GLU     O451201   5.332   5.436   3.301 -0.0150  0.6370  0.1576
  307GLU     H151202   5.479   5.306   3.237 -0.7490  2.4117  0.4138
  307GLU     H251203   5.492   5.239   3.428  0.1878  1.4456 -3.8486
  307GLU     H351204   5.387   5.110   3.399 -3.4107  0.6883 -3.4890
  307GLU     H451205   5.334   5.239   3.622  2.2195  3.4956  0.9178
  307GLU     H551206   5.166   5.521   3.402 -0.7292 -5.2270  1.7553
  307GLU     H651207   5.333   5.709   3.381  1.3150 -1.7949 -1.4215
  307GLU     H751208   5.452   5.627   3.472 -1.2438 -2.2363  0.8606
  307GLU     H851209   5.343   5.798   3.626  1.1229  0.1716  4.5266
  307GLU     H951210   5.365   5.643   3.685  0.8455 -2.7270 -1.5559
  307GLU    H1051211   5.124   5.583   3.688  1.7514  1.2321  1.3273
  307GLU    H1151212   5.076   5.687   3.572 -0.9089 -2.1973  0.0389
  307GLU    H1251213   5.186   5.869   3.736  3.1722 -1.6633  3.1845
  307GLU    H1351214   4.898   5.654   3.815  4.1668 -0.2465 -0.2085
  307GLU    H1451215   4.896   5.694   4.014  3.9233 -0.2710  2.4623
  307GLU    H1551216   4.860   5.869   4.001 -1.0544 -1.9718  1.4196
  307GLU    H1651217   5.091   5.916   3.966 -0.9309  0.3644  0.5966
  308GLU     C151218   0.641   6.779   5.223 -0.3461 -0.2549 -0.1577
  308GLU     C251219   0.776   6.821   5.268 -0.4801 -0.1902  0.1663
  308GLU     C351220   0.777   6.968   5.306  0.0959  0.4323  0.4076
  308GLU     O151221   0.663   7.037   5.264 -0.1100 -0.0143  0.5711
  308GLU     C451222   0.535   6.987   5.324  0.3771  0.3049  0.5242
  308GLU     C551223   0.422   7.036   5.242  1.1311  0.2047  0.8494
  308GLU     C651224   0.307   7.097   5.322 -0.2493 -1.3882  1.2803
  308GLU     C751225   0.233   6.980   5.390  0.1549  0.1945 -0.0876
  308GLU     C851226   0.079   7.008   5.404  0.4637  0.7024  0.7332
  308GLU     O251227   0.008   6.882   5.426  0.0709  0.5406 -1.1311
  308GLU     C951228   7.628   6.893   5.415 -1.3315 -0.6294  0.1227
  308GLU    C1051229   7.586   6.987   5.530 -0.5460 -0.4537  0.8100
  308GLU    C1151230   7.658   7.124   5.523 -1.1933  0.1196  0.2969
  308GLU     O351231   0.031   7.099   5.506 -0.0336 -0.1238 -0.5241
  308GLU     O451232   0.548   6.840   5.324  0.5597 -0.8837 -0.1746
  308GLU     H151233   0.616   6.828   5.129  0.4179 -0.3980 -0.4426
  308GLU     H251234   0.848   6.798   5.189  0.7502 -1.6186  1.6586
  308GLU     H351235   0.809   6.768   5.358 -4.0088 -0.1997  1.6227
  308GLU     H451236   0.787   6.962   5.415 -1.3691 -2.5794  0.4710
  308GLU     H551237   0.531   7.024   5.427 -0.1941 -2.3003  1.4941
  308GLU     H651238   0.382   6.966   5.167 -0.6070 -0.3202  2.1979
  308GLU     H751239   0.457   7.108   5.168  0.2272 -1.8284 -1.7069
  308GLU     H851240   0.249   7.168   5.262  1.7688 -0.2452  0.6144
  308GLU     H951241   0.346   7.160   5.402 -1.0749  1.1857 -0.2356
  308GLU    H1051242   0.284   6.951   5.483 -2.5984  1.0446  1.8418
  308GLU    H1151243   0.243   6.884   5.338 -0.1046 -0.0152  0.2450
  308GLU    H1251244   0.042   7.032   5.304  0.5350  1.8597  0.9798
  308GLU    H1351245   7.577   6.935   5.327  0.4486  1.6675  0.0839
  308GLU    H1451246   7.599   6.926   5.621  0.7884 -0.0944  0.8871
  308GLU    H1551247   7.479   7.008   5.518 -0.6902 -2.7320 -4.2756
  308GLU    H1651248   7.655   7.170   5.622 -1.5151 -0.9252  0.7769
  309GLU     C151249   1.210   5.843   3.620  0.4473 -0.6914  1.2065
  309GLU     C251250   1.230   5.693   3.656 -0.5011 -0.0851 -1.6946
  309GLU     C351251   1.339   5.634   3.561  1.3864  0.5491  0.6858
  309GLU     O151252   1.452   5.706   3.596 -0.1443 -0.3286  0.2573
  309GLU     C451253   1.470   5.838   3.628 -1.1817 -0.0397  0.3472
  309GLU     C551254   1.598   5.894   3.541  0.1883 -0.6808 -1.3766
  309GLU     C651255   1.711   5.964   3.616 -0.2483 -0.4427 -0.0404
  309GLU     C751256   1.858   5.993   3.576 -1.2010  0.2072 -0.3338
  309GLU     C851257   1.886   6.135   3.544 -1.1300 -0.9681  0.7604
  309GLU     O251258   1.968   6.211   3.641  0.7177 -0.7311  0.6981
  309GLU     C951259   2.047   6.325   3.618  0.4595  0.1073  0.1254
  309GLU    C1051260   2.101   6.326   3.470  0.2257 -1.0145 -0.7048
  309GLU    C1151261   2.014   6.264   3.366  1.0216  1.3657 -0.8510
  309GLU     O351262   1.966   6.134   3.417  0.1756 -0.3256 -0.5298
  309GLU     O451263   1.342   5.904   3.594 -1.0300 -1.1578 -0.8013
  309GLU     H151264   1.149   5.838   3.529  1.4891 -0.3426  0.4622
  309GLU     H251265   1.129   5.652   3.650 -0.7592  0.4415 -0.9648
  309GLU     H351266   1.247   5.668   3.761 -0.4319 -4.4029 -2.5417
  309GLU     H451267   1.309   5.641   3.455  1.6943 -2.5689  0.2999
  309GLU     H551268   1.489   5.836   3.736 -6.0574  0.0955  1.4312
  309GLU     H651269   1.567   5.965   3.462  1.0015  0.5729 -0.6023
  309GLU     H751270   1.653   5.816   3.487 -1.1487 -1.2379 -1.9743
  309GLU     H851271   1.726   5.905   3.707 -1.6943 -0.0774  0.4530
  309GLU     H951272   1.678   6.065   3.643  0.8149 -0.8776  3.3898
  309GLU    H1051273   1.885   5.922   3.497 -3.1475  1.5235 -2.2878
  309GLU    H1151274   1.925   5.970   3.661  0.0663 -0.8443 -1.5715
  309GLU    H1251275   1.789   6.185   3.533 -0.2004  2.2924  4.8773
  309GLU    H1351276   1.979   6.409   3.635 -0.7288 -0.2874 -2.3527
  309GLU    H1451277   2.195   6.270   3.463 -1.1145 -3.5883  0.4160
  309GLU    H1551278   2.118   6.432   3.445 -4.9974  1.0166  2.5860
  309GLU    H1651279   1.924   6.326   3.373 -0.6457 -0.8235 -1.6453
  310GLU     C151280   3.720   3.107   6.912 -0.5702  0.2110 -0.7628
  310GLU     C251281   3.640   3.116   6.778  0.3276 -0.5835 -0.2905
  310GLU     C351282   3.576   2.975   6.775  0.5909  0.6253  0.4944
  310GLU     O151283   3.472   2.985   6.875 -0.0982 -0.0032  0.4428
  310GLU     C451284   3.488   3.070   6.992 -0.4367  0.2438  0.0507
  310GLU     C551285   3.383   3.059   7.114  1.2176  0.3608 -0.8426
  310GLU     C651286   3.385   2.987   7.260  0.2448  1.2974 -0.9133
  310GLU     C751287   3.249   2.981   7.341 -0.0513 -0.2100 -0.5188
  310GLU     C851288   3.200   2.872   7.447 -0.6955 -0.2655  0.5686
  310GLU     O251289   3.288   2.853   7.558 -0.2621  0.6491 -0.1818
  310GLU     C951290   3.235   2.838   7.689  1.3955  0.3913  0.4261
  310GLU    C1051291   3.111   2.746   7.671 -0.0951  0.3061 -0.7800
  310GLU    C1151292   3.000   2.832   7.619  0.7039  0.8104  0.1445
  310GLU     O351293   3.059   2.875   7.483 -0.1526 -0.1367  0.6769
  310GLU     O451294   3.630   3.100   7.029 -0.1794 -0.0821  0.1109
  310GLU     H151295   3.774   3.011   6.915  3.2583  2.1195  3.0921
  310GLU     H251296   3.687   3.132   6.680  1.3214 -2.3188 -0.1458
  310GLU     H351297   3.575   3.204   6.776  0.8775 -0.1579 -2.5669
  310GLU     H451298   3.650   2.901   6.807  2.6225  1.8467 -1.0888
  310GLU     H551299   3.434   3.161   6.962 -2.4496 -1.2330 -1.0552
  310GLU     H651300   3.280   3.083   7.085  0.4819 -2.0985 -0.4947
  310GLU     H751301   3.397   3.157   7.162 -0.5270 -0.7102  2.0869
  310GLU     H851302   3.465   3.042   7.309 -0.0493  2.9826 -2.2181
  310GLU     H951303   3.432   2.888   7.257 -0.9666  0.6685 -0.3006
  310GLU    H1051304   3.163   2.957   7.278 -0.9322 -0.2846  0.6767
  310GLU    H1151305   3.232   3.082   7.381 -0.5581 -0.9175  1.1755
  310GLU    H1251306   3.218   2.777   7.395  0.5569  1.1840 -1.8231
  310GLU    H1351307   3.185   2.922   7.738 -0.0184  1.1271 -2.0750
  310GLU    H1451308   3.096   2.712   7.774  2.9023 -1.7297 -0.8721
  310GLU    H1551309   3.141   2.660   7.609  0.5274  0.8047 -1.1841
  310GLU    H1651310   2.982   2.912   7.692 -2.9457  1.4397 -1.2489
  311GLU     C151311   6.576   0.163   0.995  0.2885 -0.1530  0.3102
  311GLU     C251312   6.600   0.312   0.954  0.8209  0.0276 -0.2212
  311GLU     C351313   6.659   0.371   1.080  0.6361  0.1391 -0.2697
  311GLU     O151314   6.788   0.300   1.106  0.0889 -0.0214 -0.7212
  311GLU     C451315   6.824   0.180   1.027 -0.1756 -1.5006 -0.3109
  311GLU     C551316   6.941   0.085   1.090 -0.2931  0.9036 -0.1949
  311GLU     C651317   7.072   0.148   1.144  1.0755  0.2899  0.5838
  311GLU     C751318   7.200   0.053   1.168  0.1667  0.7422 -0.3356
  311GLU     C851319   7.331   0.108   1.213  0.1421 -0.4466 -0.1277
  311GLU     O251320   7.425   0.013   1.266 -0.5377 -1.3219 -0.6231
  311GLU     C951321   7.574   0.035   1.259 -0.4870  0.2140  0.2279
  311GLU    C1051322   7.592   0.174   1.207  0.0054 -0.0854 -0.4510
  311GLU    C1151323   7.511   0.167   1.080  0.5911  0.2724 -0.1290
  311GLU     O351324   7.379   0.199   1.118  0.0760  0.3756  0.4016
  311GLU     O451325   6.701   0.099   0.998  0.7143 -0.0622  0.4952
  311GLU     H151326   6.540   0.161   1.098  2.2085 -1.5608  0.9960
  311GLU     H251327   6.505   0.360   0.926  2.0233  3.7944  1.4035
  311GLU     H351328   6.663   0.323   0.865  2.0590 -0.1419  0.6150
  311GLU     H451329   6.587   0.341   1.156  0.6548 -0.9843 -0.6762
  311GLU     H551330   6.871   0.222   0.938 -0.8925  1.5153  0.6196
  311GLU     H651331   6.989   0.020   1.015  3.5187  1.8489  1.1506
  311GLU     H751332   6.903   0.018   1.169  0.0415 -0.1965 -0.9391
  311GLU     H851333   7.042   0.201   1.235 -1.4958  1.0083 -0.6002
  311GLU     H951334   7.090   0.216   1.059 -1.7126 -2.3156 -2.3796
  311GLU    H1051335   7.225   0.002   1.074 -0.6186  2.6833 -1.6647
  311GLU    H1151336   7.162   7.660   1.236  1.3758  1.1585  0.8482
  311GLU    H1251337   7.299   0.168   1.299 -2.4588  0.2824 -1.5108
  311GLU    H1351338   7.617   7.657   1.180  1.8463  2.9605 -0.8726
  311GLU    H1451339   7.696   0.208   1.201  0.2596  1.3164  5.6220
  311GLU    H1551340   7.545   0.252   1.270  0.0445  1.6136 -2.4022
  311GLU    H1651341   7.512   0.067   1.036 -1.2412  0.7323 -1.3103
  312GLU     C151342   5.066   5.061   1.034  0.8833 -0.2425 -1.1519
  312GLU     C251343   4.986   5.152   0.937 -0.1942 -0.1835  0.4506
  312GLU     C351344   4.872   5.241   1.010  1.1845  0.9752 -0.0409
  312GLU     O151345   4.943   5.315   1.116 -0.0101 -0.0403  0.2707
  312GLU     C451346   5.085   5.280   1.155  0.6081  0.2629  0.7117
  312GLU     C551347   5.111   5.334   1.299  0.6648 -0.6119  0.4093
  312GLU     C651348   4.997   5.377   1.385  0.9602 -0.7455  0.6679
  312GLU     C751349   4.986   5.533   1.363 -0.7405  0.4404  0.8443
  312GLU     C851350   4.900   5.608   1.464 -0.3355  0.0446 -0.9769
  312GLU     O251351   4.958   5.736   1.515 -0.6524  0.3790 -0.0328
  312GLU     C951352   4.868   5.807   1.614  0.1035  0.3928  0.8048
  312GLU    C1051353   4.736   5.833   1.532  0.5634  0.2702 -0.2824
  312GLU    C1151354   4.683   5.700   1.487  0.0880  0.3506 -0.9481
  312GLU     O351355   4.779   5.640   1.397 -0.3493 -0.7946 -0.2542
  312GLU     O451356   5.126   5.143   1.140 -0.2278 -0.7997  0.0924
  312GLU     H151357   4.985   5.001   1.077  2.0413 -0.3946  0.9835
  312GLU     H251358   4.931   5.097   0.860 -4.8641  2.1518  1.7625
  312GLU     H351359   5.047   5.221   0.876 -0.7972  1.1920  1.3609
  312GLU     H451360   4.795   5.173   1.048  1.2187 -1.1276 -3.3457
  312GLU     H551361   5.155   5.329   1.087  0.0581  2.3800  1.5766
  312GLU     H651362   5.180   5.417   1.280 -1.8225  1.8047  1.2521
  312GLU     H751363   5.168   5.256   1.351 -2.2004 -0.7370  3.7126
  312GLU     H851364   5.014   5.365   1.493 -3.2316  2.9762  2.0439
  312GLU     H951365   4.896   5.338   1.365  1.3578 -0.7066 -1.6356
  312GLU    H1051366   4.963   5.560   1.259 -3.9077  1.3101  1.6522
  312GLU    H1151367   5.088   5.567   1.387 -1.7166  3.8759  0.6539
  312GLU    H1251368   4.874   5.535   1.542 -3.7058  0.2435 -1.7395
  312GLU    H1351369   4.835   5.735   1.689 -0.7237  2.3807  2.4642
  312GLU    H1451370   4.749   5.871   1.430 -0.2429 -1.7803 -1.2228
  312GLU    H1551371   4.675   5.901   1.592  3.3546  2.8143 -0.1160
  312GLU    H1651372   4.662   5.639   1.576 -0.0253 -2.0395 -2.5232
  313GLU     C151373   0.525   7.537   0.725 -0.3568  0.1819  0.1915
  313GLU     C251374   0.470   7.544   0.578  0.2650 -0.8506 -0.3518
  313GLU     C351375   0.330   7.473   0.577  0.4510  0.5189  0.8457
  313GLU     O151376   0.321   7.347   0.659  0.3698 -0.2584  1.0075
  313GLU     C451377   0.386   7.343   0.789  0.7399 -1.3125  1.3664
  313GLU     C551378   0.401   7.193   0.826  0.3640  0.2059 -0.1173
  313GLU     C651379   0.340   7.126   0.942 -0.2673 -0.4520 -0.0169
  313GLU     C751380   0.185   7.142   0.955 -1.8441  0.3406  0.5593
  313GLU     C851381   0.108   7.017   0.910 -0.6334 -0.4879 -0.5304
  313GLU     O251382   7.733   7.039   0.932  0.3610  0.6263 -0.5178
  313GLU     C951383   7.661   7.117   0.840  0.3650  0.7810  0.6803
  313GLU    C1051384   7.701   7.089   0.688  0.7438  0.2573  1.6721
  313GLU    C1151385   0.093   7.064   0.671 -0.2685 -0.3708 -0.2081
  313GLU     O351386   0.143   6.989   0.776  0.3312  0.5870  0.4400
  313GLU     O451387   0.514   7.410   0.771 -1.2363  0.2080 -0.8261
  313GLU     H151388   0.470   7.597   0.798 -3.4639 -1.6190 -0.4984
  313GLU     H251389   0.535   7.477   0.520 -0.1829 -3.4590  1.9567
  313GLU     H351390   0.448   7.648   0.551  1.4798 -0.1641  1.1647
  313GLU     H451391   0.304   7.447   0.474  1.7272 -0.4385  0.7330
  313GLU     H551392   0.306   7.390   0.847  1.4859 -0.8448  2.0377
  313GLU     H651393   0.509   7.169   0.826 -0.0528 -1.8534  0.4129
  313GLU     H751394   0.378   7.136   0.736  3.4768 -2.2405  0.4603
  313GLU     H851395   0.398   7.175   1.021  1.5192  1.2571 -2.2250
  313GLU     H951396   0.370   7.021   0.953  2.7364  0.2376 -0.7069
  313GLU    H1051397   0.141   7.227   0.901 -4.6237 -0.5039  1.3534
  313GLU    H1151398   0.146   7.149   1.057 -3.6419  3.1746 -0.2053
  313GLU    H1251399   0.134   6.931   0.973  5.7994  0.4831 -1.1920
  313GLU    H1351400   7.696   7.221   0.851  0.5460  1.3551 -3.6442
  313GLU    H1451401   7.681   7.178   0.627  2.1379  0.5261  1.5790
  313GLU    H1551402   7.649   7.003   0.643 -0.0210  3.2926 -4.2216
  313GLU    H1651403   0.116   7.171   0.669 -2.6605  0.3300  2.5437
  314GLU     C151404   0.550   6.927   2.181  1.0184  0.2050 -0.1057
  314GLU     C251405   0.514   7.086   2.159  0.2380 -0.7180  0.8889
  314GLU     C351406   0.358   7.106   2.147 -0.0790 -0.1658  0.4542
  314GLU     O151407   0.306   6.987   2.095 -0.1045  0.4870 -0.1680
  314GLU     C451408   0.390   6.892   2.011 -0.4866 -1.0206 -1.1232
  314GLU     C551409   0.389   6.915   1.855 -0.1009  0.3479  1.3479
  314GLU     C651410   0.378   6.777   1.781 -0.2824 -0.4315 -0.0957
  314GLU     C751411   0.283   6.671   1.833  0.0987 -0.5780 -0.0843
  314GLU     C851412   0.144   6.727   1.805  0.3216 -0.6067 -0.1715
  314GLU     O251413   0.040   6.626   1.782  0.5593  0.6798 -0.0276
  314GLU     C951414   7.671   6.645   1.799  0.8145 -0.4634  0.9213
  314GLU    C1051415   7.647   6.801   1.833  0.1397  0.3361 -0.3440
  314GLU    C1151416   7.738   6.846   1.939 -0.4966  0.0810 -1.7621
  314GLU     O351417   0.095   6.775   1.933  0.0463  0.2785 -0.6240
  314GLU     O451418   0.528   6.880   2.051  0.1881  0.1206  0.2340
  314GLU     H151419   0.479   6.878   2.249  0.8824  2.4706  1.5118
  314GLU     H251420   0.565   7.129   2.071 -2.8807 -0.8777 -1.1614
  314GLU     H351421   0.532   7.136   2.255  0.8566  0.8756 -0.0172
  314GLU     H451422   0.293   7.111   2.235  0.2471 -4.0263  1.0780
  314GLU     H551423   0.363   6.788   2.030 -2.2340 -0.9286 -2.7725
  314GLU     H651424   0.469   6.983   1.825 -1.8712  1.4292 -1.3478
  314GLU     H751425   0.303   6.980   1.835 -2.0841 -1.2826  3.9507
  314GLU     H851426   0.479   6.737   1.789  0.1221  0.7124  0.6560
  314GLU     H951427   0.345   6.778   1.676  0.5843 -0.2965 -0.3728
  314GLU    H1051428   0.289   6.639   1.938  0.9484  0.7423  0.2923
  314GLU    H1151429   0.296   6.574   1.785 -2.9129 -0.5866 -1.0950
  314GLU    H1251430   0.145   6.797   1.720 -2.2259 -0.6926 -0.3758
  314GLU    H1351431   7.642   6.573   1.877 -1.6507  0.1996  0.7184
  314GLU    H1451432   7.541   6.805   1.863 -0.5766 -4.9809 -1.1512
  314GLU    H1551433   7.663   6.868   1.747  0.5533 -0.8163 -1.1857
  314GLU    H1651434   7.687   6.806   2.027  1.6578  1.5114  0.2549
  315GLU     C151435   3.671   6.951   5.230 -1.2747 -1.0716  0.8860
  315GLU     C251436   3.739   6.832   5.277 -0.0791 -0.1386 -0.3012
  315GLU     C351437   3.723   6.714   5.176  0.4232 -0.3552  0.2561
  315GLU     O151438   3.581   6.684   5.180  0.6612  0.2606 -0.0962
  315GLU     C451439   3.493   6.791   5.129  0.5026 -0.2252 -0.0848
  315GLU     C551440   3.340   6.763   5.149  0.5359 -0.4419 -0.4919
  315GLU     C651441   3.243   6.751   5.028 -0.0645 -0.8014  0.4056
  315GLU     C751442   3.199   6.871   4.932  0.9724 -0.5836 -0.6112
  315GLU     C851443   3.132   6.835   4.794  0.7295  1.0426 -0.4715
  315GLU     O251444   3.111   6.700   4.748  0.3712  0.2364  0.0404
  315GLU     C951445   2.997   6.639   4.804  0.4821  1.8204 -0.0786
  315GLU    C1051446   2.886   6.697   4.722 -1.2841  0.3832  0.6000
  315GLU    C1151447   2.872   6.851   4.716 -0.2721  0.0992  0.1005
  315GLU     O351448   3.006   6.904   4.767  0.7552  1.0662  0.1205
  315GLU     O451449   3.530   6.905   5.209  0.6479 -0.3200 -0.0939
  315GLU     H151450   3.717   6.989   5.138 -2.1449 -3.8948 -0.8416
  315GLU     H251451   3.701   6.807   5.377 -0.1115  1.4848  0.1217
  315GLU     H351452   3.849   6.829   5.280  0.0293 -0.5772 -2.8231
  315GLU     H451453   3.750   6.736   5.072  2.7845 -4.4284 -0.2042
  315GLU     H551454   3.524   6.797   5.024  1.5253  0.4308  0.2477
  315GLU     H651455   3.317   6.855   5.204  3.6425  0.9937 -1.3860
  315GLU     H751456   3.325   6.677   5.217 -0.0942 -0.1090 -0.1961
  315GLU     H851457   3.150   6.699   5.051 -0.0211 -0.1589  2.1813
  315GLU     H951458   3.271   6.678   4.950 -0.4777  2.0185 -2.5881
  315GLU    H1051459   3.283   6.937   4.908  2.7989 -2.4653  0.3592
  315GLU    H1151460   3.124   6.930   4.987 -0.6880 -0.7680 -2.5491
  315GLU    H1251461   3.204   6.885   4.728 -0.4528  1.2063 -1.6571
  315GLU    H1351462   2.994   6.668   4.910 -1.2025  0.4191  0.2961
  315GLU    H1451463   2.795   6.643   4.752 -0.2282 -0.5347  2.3171
  315GLU    H1551464   2.906   6.650   4.625  2.6058  1.4441  0.7086
  315GLU    H1651465   2.803   6.895   4.788 -1.4863  4.3772 -3.2464
  316GLU     C151466   5.669   2.138   2.157 -0.1179  0.2267 -0.0393
  316GLU     C251467   5.573   2.243   2.215 -0.6646  0.7190 -1.5105
  316GLU     C351468   5.425   2.221   2.171 -0.4646 -0.1277  0.0266
  316GLU     O151469   5.388   2.087   2.202  0.5589  0.6235 -0.4674
  316GLU     C451470   5.468   1.991   2.150 -0.8666  0.5574  0.3013
  316GLU     C551471   5.394   1.903   2.043  0.8349  0.9095  0.7533
  316GLU     C651472   5.456   1.758   2.043  0.3381 -1.2575 -0.3022
  316GLU     C751473   5.405   1.639   1.953 -0.9680  0.2408 -0.8799
  316GLU     C851474   5.473   1.641   1.809  0.9934 -0.0756 -0.5181
  316GLU     O251475   5.382   1.571   1.711 -0.3034 -0.2313 -0.2425
  316GLU     C951476   5.384   1.597   1.568  0.9855 -0.0561  0.4840
  316GLU    C1051477   5.426   1.744   1.552 -0.1904  0.8986  0.2365
  316GLU    C1151478   5.555   1.774   1.635 -0.1143 -1.6993 -0.1581
  316GLU     O351479   5.507   1.772   1.775 -0.9028  0.0025  0.9773
  316GLU     O451480   5.593   2.049   2.077  0.2092 -0.0506 -0.6711
  316GLU     H151481   5.709   2.078   2.240 -0.7643  1.2676  1.0579
  316GLU     H251482   5.601   2.331   2.155 -2.9549  1.4125 -1.6332
  316GLU     H351483   5.599   2.272   2.318 -0.6846 -1.2581 -0.9150
  316GLU     H451484   5.430   2.244   2.064  1.3609  2.9101  0.6260
  316GLU     H551485   5.507   1.923   2.226 -1.2271 -1.9251 -1.6047
  316GLU     H651486   5.406   1.954   1.946 -2.9099 -0.4931 -0.5901
  316GLU     H751487   5.289   1.904   2.074 -0.6445  3.7956 -3.4564
  316GLU     H851488   5.457   1.717   2.144 -1.3640 -0.0614  0.2431
  316GLU     H951489   5.554   1.773   1.996  0.5012 -1.8242 -0.1439
  316GLU    H1051490   5.299   1.660   1.937 -0.2154  2.2297 -4.3509
  316GLU    H1151491   5.436   1.549   2.006 -1.1508 -0.5177 -2.0246
  316GLU    H1251492   5.569   1.588   1.813  1.9317  1.3171 -2.8727
  316GLU    H1351493   5.460   1.526   1.535 -0.5240 -2.1536  1.2684
  316GLU    H1451494   5.350   1.819   1.579 -2.1692 -0.8664 -0.2173
  316GLU    H1551495   5.480   1.772   1.460  2.9724 -2.8504  0.6895
  316GLU    H1651496   5.619   1.686   1.633  0.0174 -1.6224  0.4937
  317GLU     C151497   6.853   3.555   1.948 -0.5308 -1.0445 -0.4552
  317GLU     C251498   6.773   3.691   1.979 -0.5052  0.2628 -1.9841
  317GLU     C351499   6.688   3.754   1.872 -0.2091  0.2858 -0.6336
  317GLU     O151500   6.738   3.692   1.747 -0.1817 -0.1108  0.2146
  317GLU     C451501   6.720   3.555   1.745 -0.3819 -0.5589 -0.4184
  317GLU     C551502   6.745   3.498   1.598  0.1575 -0.1105 -0.8475
  317GLU     C651503   6.896   3.444   1.567  0.3251 -1.0612  0.5028
  317GLU     C751504   6.912   3.408   1.413  0.1909 -0.5230 -0.9913
  317GLU     C851505   7.057   3.398   1.349  0.2621 -0.6468  0.4555
  317GLU     O251506   7.094   3.471   1.226  0.5058  0.8318  0.1541
  317GLU     C951507   7.229   3.473   1.184  0.1546  0.6715 -1.6929
  317GLU    C1051508   7.315   3.515   1.298 -0.9024 -1.1567 -0.8015
  317GLU    C1151509   7.286   3.427   1.423 -0.1979  0.2803  0.4143
  317GLU     O351510   7.158   3.441   1.459  0.2395 -0.3904 -0.1326
  317GLU     O451511   6.818   3.484   1.825 -0.3911  1.1194  0.0898
  317GLU     H151512   6.961   3.576   1.940 -0.8742  0.4102 -1.8770
  317GLU     H251513   6.828   3.773   2.027 -3.2833  0.6150  0.9419
  317GLU     H351514   6.702   3.661   2.056  0.3470 -0.7237 -1.5581
  317GLU     H451515   6.601   3.693   1.897  1.6654 -0.9362  3.9099
  317GLU     H551516   6.617   3.529   1.772 -1.4219  3.0600 -0.3786
  317GLU     H651517   6.713   3.588   1.544  3.5401  0.8367 -1.5042
  317GLU     H751518   6.672   3.417   1.583 -1.6659  1.4326 -0.6714
  317GLU     H851519   6.912   3.348   1.619  2.6827 -0.4808  0.9588
  317GLU     H951520   6.968   3.514   1.611 -0.8665  0.5176  0.0306
  317GLU    H1051521   6.854   3.481   1.355 -1.7525 -1.2741 -0.0620
  317GLU    H1151522   6.860   3.318   1.378 -4.2099  2.1752 -2.1754
  317GLU    H1251523   7.082   3.295   1.322  2.8835 -0.1627  0.7280
  317GLU    H1351524   7.264   3.369   1.183 -2.4334 -0.4660  2.3738
  317GLU    H1451525   7.289   3.621   1.316  0.2329 -0.7963 -1.2291
  317GLU    H1551526   7.413   3.497   1.252 -0.5922 -1.4939 -0.0187
  317GLU    H1651527   7.313   3.327   1.385  0.7418  0.9776 -0.8507
  318GLU     C151528   1.472   0.234   0.095  0.3787 -0.7115  0.3181
  318GLU     C251529   1.447   0.257   8.038 -0.5798  0.1615 -0.1850
  318GLU     C351530   1.309   0.269   7.992  0.0518  0.2437 -0.0195
  318GLU     O151531   1.249   0.151   8.049 -0.1359  0.7040  0.1425
  318GLU     C451532   1.228   0.176   0.093 -0.0761  0.0517 -0.7605
  318GLU     C551533   1.128   0.082   0.156  0.2170  1.0719  0.5691
  318GLU     C651534   1.151   0.019   0.298  0.6103  0.6437  0.2982
  318GLU     C751535   1.044   7.598   0.338 -0.1502 -0.3554  0.2348
  318GLU     C851536   1.078   7.485   0.439 -0.0682  0.1947  0.9999
  318GLU     O251537   0.943   7.430   0.480  0.4603 -0.2785 -0.4814
  318GLU     C951538   0.955   7.300   0.563 -0.4229 -0.0359 -0.0196
  318GLU    C1051539   1.026   7.194   0.482  0.6704  0.3985  0.0208
  318GLU    C1151540   1.167   7.242   0.462  0.3460  0.5891  1.9641
  318GLU     O351541   1.162   7.373   0.382  0.6458 -1.0083  0.1205
  318GLU     O451542   1.361   0.181   0.166  0.6551 -0.0076 -0.8334
  318GLU     H151543   1.554   0.164   0.116  2.1893  1.6655  1.7260
  318GLU     H251544   1.491   0.159   8.015 -2.6837 -1.6666  2.8792
  318GLU     H351545   1.509   0.338   7.996 -0.1990  0.9354  1.7845
  318GLU     H451546   1.260   0.359   8.032  0.8654  1.1731 -1.0484
  318GLU     H551547   1.180   0.274   0.095 -2.8468 -0.9881 -4.8339
  318GLU     H651548   1.100   0.008   0.080  2.2645 -0.7720  1.4835
  318GLU     H751549   1.041   0.145   0.176  0.4547  1.0913  1.5854
  318GLU     H851550   1.155   0.095   0.377  0.2884 -1.4571  2.4615
  318GLU     H951551   1.256   7.672   0.297  0.2167 -1.1529  3.3450
  318GLU    H1051552   1.002   7.546   0.251 -1.8054  3.0848 -1.2471
  318GLU    H1151553   0.967   7.669   0.371 -0.6559 -1.8417  2.4772
  318GLU    H1251554   1.117   7.532   0.530  2.1103  3.4974 -1.3729
  318GLU    H1351555   1.024   7.333   0.642  1.0201 -1.6361 -0.5252
  318GLU    H1451556   0.964   7.170   0.395 -1.2469 -1.3474  1.7518
  318GLU    H1551557   1.026   7.094   0.527 -0.6966  0.7431  0.8202
  318GLU    H1651558   1.223   7.242   0.556  2.7156  0.3247  0.6352
  319GLU     C151559   5.825   3.689   6.428 -0.8544  1.0506 -0.4222
  319GLU     C251560   5.829   3.774   6.550  0.6474 -0.3206 -0.3315
  319GLU     C351561   5.760   3.701   6.664 -0.2880  0.1262 -0.2544
  319GLU     O151562   5.834   3.576   6.686 -0.8259 -0.4010 -0.8280
  319GLU     C451563   5.866   3.479   6.570 -0.2584 -0.4370 -0.0118
  319GLU     C551564   5.757   3.375   6.554 -0.1866  0.8100 -0.2444
  319GLU     C651565   5.619   3.381   6.617  0.0985  0.9008 -0.0084
  319GLU     C751566   5.531   3.256   6.591 -0.8289  0.2107  0.6192
  319GLU     C851567   5.394   3.248   6.654  0.6572  0.8772 -0.1317
  319GLU     O251568   5.285   3.190   6.562 -0.8313  0.1378 -0.5764
  319GLU     C951569   5.279   3.056   6.541  0.6561  0.3985 -2.0754
  319GLU    C1051570   5.269   2.987   6.677  0.4090 -1.6239 -0.9547
  319GLU    C1151571   5.288   3.094   6.799 -0.3907  0.0631 -1.2773
  319GLU     O351572   5.400   3.178   6.771  0.0623 -0.0228 -0.5284
  319GLU     O451573   5.885   3.555   6.450 -0.5703 -0.3322  0.0606
  319GLU     H151574   5.720   3.695   6.398 -0.3339  2.8507 -2.0476
  319GLU     H251575   5.795   3.875   6.526 -2.3067 -0.5427  2.2434
  319GLU     H351576   5.936   3.788   6.570  1.2299 -3.5166 -0.7277
  319GLU     H451577   5.652   3.680   6.667  0.0467 -2.0319 -1.3689
  319GLU     H551578   5.959   3.423   6.575 -1.4910 -2.4691  2.4141
  319GLU     H651579   5.791   3.275   6.583 -1.9710 -1.4991 -4.9648
  319GLU     H751580   5.742   3.353   6.447  0.4690 -1.9303  0.1585
  319GLU     H851581   5.564   3.466   6.575  1.6822  0.6039 -2.9316
  319GLU     H951582   5.635   3.401   6.724  0.9068  0.8091 -0.1054
  319GLU    H1051583   5.579   3.160   6.613 -2.5493 -0.8467 -0.0751
  319GLU    H1151584   5.527   3.255   6.481  1.5487 -0.9363  0.4790
  319GLU    H1251585   5.360   3.352   6.656 -1.7875  0.1866 -1.5190
  319GLU    H1351586   5.374   3.035   6.490  2.2238  0.1363  0.7731
  319GLU    H1451587   5.333   2.899   6.690  1.6644 -0.8618 -1.8120
  319GLU    H1551588   5.166   2.948   6.681  0.3782 -1.4360  1.6967
  319GLU    H1651589   5.200   3.158   6.811  1.8029  3.3658 -1.5531
  320GLU     C151590   3.573   0.494   1.853  0.4426 -0.7147  0.2871
  320GLU     C251591   3.435   0.529   1.862  0.3221 -0.1173  0.3990
  320GLU     C351592   3.374   0.564   1.997  0.1984  1.2330 -0.1766
  320GLU     O151593   3.392   0.452   2.079 -0.0033  0.0242  0.7352
  320GLU     C451594   3.513   0.389   2.077 -0.6635  0.0273  1.6723
  320GLU     C551595   3.489   0.240   2.028 -0.8029 -1.1328  0.2903
  320GLU     C651596   3.615   0.153   2.016 -0.9462  0.3011 -0.1541
  320GLU     C751597   3.729   0.179   2.117  0.5630 -0.4192 -0.2664
  320GLU     C851598   3.859   0.101   2.111 -0.0633  0.7154 -0.0020
  320GLU     O251599   3.849   7.658   2.040 -0.5982 -0.4079 -0.1662
  320GLU     C951600   3.865   7.651   1.902 -0.1495  1.1080 -0.7671
  320GLU    C1051601   3.983   0.043   1.855 -0.9295 -0.4051  0.2037
  320GLU    C1151602   3.970   0.188   1.904 -0.3311 -0.2056  0.5760
  320GLU     O351603   3.959   0.189   2.042 -0.2392  0.2695  0.3983
  320GLU     O451604   3.610   0.447   1.978 -0.5595 -0.7848 -1.1118
  320GLU     H151605   3.621   0.592   1.846 -0.6262  0.2526  4.0411
  320GLU     H251606   3.381   0.439   1.831  0.4373 -0.6606  1.7083
  320GLU     H351607   3.416   0.610   1.790  0.9389  0.3577  0.7676
  320GLU     H451608   3.265   0.571   2.009  0.1431  0.5597 -0.2503
  320GLU     H551609   3.568   0.372   2.171 -0.4242 -0.6786  1.4125
  320GLU     H651610   3.428   0.255   1.938  0.9627 -0.7310 -0.8924
  320GLU     H751611   3.418   0.199   2.101 -3.2408  1.4428 -0.4776
  320GLU     H851612   3.655   0.165   1.914  2.1180 -1.6530  0.6629
  320GLU     H951613   3.589   0.049   1.994 -0.8189  0.5876 -1.7906
  320GLU    H1051614   3.667   0.162   2.206  0.4278 -4.5022 -0.9310
  320GLU    H1151615   3.758   0.284   2.111  5.3240 -1.0858  3.9655
  320GLU    H1251616   3.894   0.086   2.213  2.5826  0.9584 -0.7911
  320GLU    H1351617   3.769   0.004   1.864 -1.4063  1.3762  2.4077
  320GLU    H1451618   3.995   0.039   1.747 -0.9785 -2.7020  0.2416
  320GLU    H1551619   4.075   7.683   1.895  0.3892  1.8809 -0.0364
  320GLU    H1651620   3.872   0.220   1.867  1.0260  0.7332 -2.6053
  321GLU     C151621   1.446   7.412   6.762 -0.0097  0.2164  0.2461
  321GLU     C251622   1.315   7.501   6.775  1.0029  0.5800 -0.6616
  321GLU     C351623   1.258   7.453   6.919  0.2267  0.2533  0.6586
  321GLU     O151624   1.191   7.327   6.888 -1.5837  0.6626 -0.0609
  321GLU     C451625   1.285   7.219   6.854 -0.4766  0.4075 -0.2562
  321GLU     C551626   1.206   7.102   6.782 -0.3811 -0.6247  0.3879
  321GLU     C651627   1.084   7.051   6.866 -0.0239  0.6599 -0.4539
  321GLU     C751628   0.986   6.939   6.801 -0.5347 -0.4577 -0.2313
  321GLU     C851629   0.904   6.841   6.893 -0.0195 -0.4015  0.0545
  321GLU     O251630   0.798   6.902   6.973  0.2028 -0.2818 -0.4684
  321GLU     C951631   0.721   6.817   7.053 -0.2535 -0.6950  1.0436
  321GLU    C1051632   0.687   6.686   6.986  0.0720  0.6458  0.3558
  321GLU    C1151633   0.773   6.622   6.882  0.4709  0.0052  0.0179
  321GLU     O351634   0.836   6.738   6.808  0.2143  0.9620 -0.0547
  321GLU     O451635   1.411   7.272   6.787 -1.2208 -0.7981 -0.0885
  321GLU     H151636   1.484   7.404   6.660 -1.2180 -2.4629 -0.0731
  321GLU     H251637   1.256   7.478   6.686 -1.6964 -2.0489  1.6055
  321GLU     H351638   1.337   7.609   6.772 -2.2323  1.3088 -1.3649
  321GLU     H451639   1.343   7.434   6.986  2.5883  0.2337 -2.1318
  321GLU     H551640   1.311   7.178   6.952 -0.6456 -2.4955 -1.3327
  321GLU     H651641   1.269   7.018   6.753  0.0732 -1.0373  2.4280
  321GLU     H751642   1.162   7.131   6.685 -0.6740 -1.8376  0.1492
  321GLU     H851643   1.022   7.135   6.900 -1.8282 -1.2182  1.2370
  321GLU     H951644   1.118   7.010   6.962 -3.5996 -0.3821  0.5298
  321GLU    H1051645   1.040   6.890   6.719 -1.7022  3.2683 -3.5152
  321GLU    H1151646   0.905   6.997   6.755 -0.2376  0.5093  0.4330
  321GLU    H1251647   0.975   6.785   6.955  1.0434 -0.5527 -1.2543
  321GLU    H1351648   0.778   6.810   7.146  1.6669  1.8960  0.1494
  321GLU    H1451649   0.581   6.702   6.959  0.5582  0.9317 -1.5044
  321GLU    H1551650   0.665   6.617   7.069 -1.0866 -0.5171 -0.8732
  321GLU    H1651651   0.852   6.554   6.916 -0.5015 -1.5436 -0.6974
  322GLU     C151652   6.145   1.267   2.559  1.3554 -0.6779 -0.0153
  322GLU     C251653   6.166   1.381   2.461  0.4502 -0.4411  0.7948
  322GLU     C351654   6.057   1.427   2.373  0.1164 -0.3136 -0.0959
  322GLU     O151655   5.963   1.443   2.474  0.0121 -0.3610  0.2731
  322GLU     C451656   5.908   1.326   2.546  0.6938 -0.0132 -0.4816
  322GLU     C551657   5.810   1.250   2.462 -0.5986  0.4557 -0.1201
  322GLU     C651658   5.703   1.341   2.400  0.6096  1.7372  0.6094
  322GLU     C751659   5.586   1.269   2.339  1.3388  0.2355 -0.0464
  322GLU     C851660   5.473   1.223   2.431  0.5078  0.7218 -0.5728
  322GLU     O251661   5.403   1.099   2.376 -0.1063 -0.8542 -0.0780
  322GLU     C951662   5.312   1.032   2.474  0.2387  0.1572 -0.2335
  322GLU    C1051663   5.397   0.995   2.607  0.0326 -0.9211  0.0994
  322GLU    C1151664   5.537   1.068   2.610 -0.2470  0.6811 -0.3309
  322GLU     O351665   5.519   1.208   2.568 -0.1658 -0.4076  0.3769
  322GLU     O451666   6.006   1.228   2.588 -0.9014 -1.1402  0.2132
  322GLU     H151667   6.189   1.174   2.523 -1.9721 -2.4371  0.1084
  322GLU     H251668   6.253   1.348   2.403  1.3961 -1.4742  2.6862
  322GLU     H351669   6.209   1.470   2.510 -0.7499 -0.0224  1.1157
  322GLU     H451670   6.029   1.355   2.296  0.6680  1.5619 -2.1662
  322GLU     H551671   5.861   1.362   2.638  1.3254  0.9076 -0.5066
  322GLU     H651672   5.765   1.178   2.532  0.7788  1.3043  1.7432
  322GLU     H751673   5.849   1.178   2.390 -0.4625 -3.5467  3.5128
  322GLU     H851674   5.761   1.395   2.324  1.2725 -1.2663 -1.1709
  322GLU     H951675   5.678   1.425   2.466  0.1773  1.3113  0.9971
  322GLU    H1051676   5.603   1.196   2.258 -0.3013  2.5208 -2.6507
  322GLU    H1151677   5.525   1.346   2.290  0.7667  0.1895  0.5903
  322GLU    H1251678   5.396   1.300   2.429 -0.1815  0.1559 -4.3330
  322GLU    H1351679   5.232   1.100   2.507  1.0586  1.8660 -1.5724
  322GLU    H1451680   5.416   0.887   2.601 -1.8845 -1.2302 -2.5082
  322GLU    H1551681   5.344   1.010   2.701  0.9097 -5.8125  1.6789
  322GLU    H1651682   5.605   1.006   2.551 -0.1091  0.6286 -0.1190
  323GLU     C151683   1.962   1.031   4.520  0.2080  0.1346 -0.4055
  323GLU     C251684   2.013   0.918   4.613  0.7315  0.0764 -0.9749
  323GLU     C351685   2.144   0.848   4.571  0.9654 -0.8512  0.6597
  323GLU     O151686   2.156   0.845   4.427 -0.0268 -0.9695 -0.3133
  323GLU     C451687   2.111   0.959   4.358  0.3457 -0.2161  1.3400
  323GLU     C551688   2.112   0.908   4.208  0.7341  0.9252 -0.2168
  323GLU     C651689   2.155   0.759   4.183  2.0131 -1.3036  1.0988
  323GLU     C751690   2.129   0.719   4.032  1.2935  0.3764 -0.7797
  323GLU     C851691   2.092   0.570   3.995 -1.2215 -0.3410 -0.0797
  323GLU     O251692   1.957   0.567   4.041 -0.5566  0.9203  0.0305
  323GLU     C951693   1.855   0.610   3.946  0.1436 -0.1219 -0.7947
  323GLU    C1051694   1.865   0.509   3.836  0.4531 -1.0377  0.8858
  323GLU    C1151695   2.000   0.444   3.815  0.2825  0.3597  0.0529
  323GLU     O351696   2.098   0.536   3.852 -0.3015  0.3199  0.0767
  323GLU     O451697   1.979   0.992   4.389  0.0596 -0.4173  0.8845
  323GLU     H151698   2.034   1.111   4.543 -2.8163  2.6404  1.0871
  323GLU     H251699   1.927   0.855   4.639  1.2832 -0.2343  0.1612
  323GLU     H351700   2.026   0.979   4.703 -4.2831  1.1308 -0.6271
  323GLU     H451701   2.226   0.906   4.616  0.4110 -0.5791  1.3389
  323GLU     H551702   2.179   1.045   4.359  1.1070 -0.7773  0.3722
  323GLU     H651703   2.193   0.953   4.150  0.0546 -1.1436 -3.0068
  323GLU     H751704   2.015   0.929   4.161  0.5466  0.5751  0.0088
  323GLU     H851705   2.083   0.694   4.235  0.3585 -1.1267 -0.8170
  323GLU     H951706   2.257   0.734   4.214  1.0229 -3.4208  2.9015
  323GLU    H1051707   2.219   0.754   3.978  1.7497  1.4592  0.6326
  323GLU    H1151708   2.050   0.786   3.996  1.8925  0.1135 -2.7066
  323GLU    H1251709   2.148   0.503   4.060 -0.7627 -0.9715 -1.0895
  323GLU    H1351710   1.871   0.711   3.907  0.8988 -0.8944 -2.5820
  323GLU    H1451711   1.854   0.575   3.750  1.1235 -0.1502  1.4626
  323GLU    H1551712   1.789   0.431   3.845 -0.4509 -0.9274 -3.7113
  323GLU    H1651713   1.999   0.358   3.882  1.5025  0.1911 -0.1145
  324GLU     C151714   2.935   0.356   6.820 -0.1490  0.0640 -0.4234
  324GLU     C251715   3.033   0.476   6.831 -0.6627 -1.2730  0.0628
  324GLU     C351716   3.011   0.597   6.930  1.0746 -0.0106  0.7033
  324GLU     O151717   2.870   0.629   6.919 -0.8492 -0.5024 -0.1127
  324GLU     C451718   2.773   0.517   6.921  1.1071  0.7486  1.1316
  324GLU     C551719   2.640   0.564   6.871 -0.5446  0.6749  0.4135
  324GLU     C651720   2.512   0.478   6.872 -0.1243  1.2853  0.6508
  324GLU     C751721   2.369   0.533   6.854 -0.6461 -0.2912  0.6200
  324GLU     C851722   2.356   0.678   6.809  0.2432 -1.1366 -1.3342
  324GLU     O251723   2.430   0.697   6.692  0.1107  0.5869  0.3784
  324GLU     C951724   2.433   0.834   6.647  0.7672 -1.3981  0.4736
  324GLU    C1051725   2.295   0.853   6.579  0.1893 -0.3824  0.1729
  324GLU    C1151726   2.174   0.791   6.671  0.3758  0.8798 -0.3680
  324GLU     O351727   2.215   0.722   6.788 -0.3964 -0.3500 -0.2736
  324GLU     O451728   2.803   0.410   6.820  0.5112  0.7088  0.1475
  324GLU     H151729   2.935   0.308   6.918 -5.6956 -0.0013 -0.1257
  324GLU     H251730   3.043   0.524   6.733  1.1890  3.7380  2.3366
  324GLU     H351731   3.127   0.433   6.868  1.3091  2.2757 -0.3015
  324GLU     H451732   3.028   0.541   7.023 -5.0481 -1.2786  1.5181
  324GLU     H551733   2.756   0.468   7.017 -1.0366 -3.5508 -1.1344
  324GLU     H651734   2.663   0.589   6.767 -0.6301 -0.9361 -0.0060
  324GLU     H751735   2.612   0.653   6.930 -0.2918  0.6417  0.5836
  324GLU     H851736   2.511   0.435   6.973 -0.1996 -0.4281 -0.0407
  324GLU     H951737   2.540   0.394   6.806 -0.0609 -4.2299  6.6532
  324GLU    H1051738   2.305   0.519   6.942 -3.0340 -2.2862 -1.3092
  324GLU    H1151739   2.318   0.471   6.779 -0.1278  0.8095 -0.6881
  324GLU    H1251740   2.399   0.748   6.882 -1.3080 -0.2040 -1.2724
  324GLU    H1351741   2.440   0.900   6.735 -4.2309 -2.3757  1.9836
  324GLU    H1451742   2.293   0.787   6.491 -0.6273 -3.9419  2.6493
  324GLU    H1551743   2.260   0.956   6.560 -2.2554 -0.7814  2.0068
  324GLU    H1651744   2.127   0.725   6.598 -0.8392  0.6906  0.5506
  325GLU     C151745   4.042   2.701   2.097  0.0527  0.4084  0.0675
  325GLU     C251746   4.083   2.633   2.229  0.2821 -0.5285  0.6835
  325GLU     C351747   4.231   2.593   2.222  0.7367 -0.2475  0.0691
  325GLU     O151748   4.238   2.506   2.107 -0.2941  0.9971 -0.1698
  325GLU     C451749   4.197   2.562   1.971 -0.5575 -0.1616 -0.5759
  325GLU     C551750   4.199   2.448   1.864 -0.2034 -1.0222 -0.0126
  325GLU     C651751   4.340   2.404   1.811  0.0550 -0.7182 -0.1900
  325GLU     C751752   4.347   2.266   1.747 -0.0087  0.3465 -0.0478
  325GLU     C851753   4.271   2.246   1.615  0.4820 -1.1959 -1.4542
  325GLU     O251754   4.332   2.143   1.535 -0.3864  0.1455 -0.4822
  325GLU     C951755   4.246   2.025   1.508  0.5390  0.8771  0.2820
  325GLU    C1051756   4.154   1.993   1.630  0.6561  0.3481 -0.6883
  325GLU    C1151757   4.060   2.107   1.658  0.7330 -0.9027  0.0051
  325GLU     O351758   4.120   2.238   1.615 -0.8456  0.3723 -0.7366
  325GLU     O451759   4.063   2.602   1.992 -0.0758 -0.5448  0.0223
  325GLU     H151760   4.109   2.785   2.080 -2.1595  2.0661 -0.9336
  325GLU     H251761   4.007   2.555   2.240 -1.1327  0.8522  1.1827
  325GLU     H351762   4.047   2.702   2.307  1.2130  0.5850  0.1619
  325GLU     H451763   4.283   2.688   2.202  5.3649 -1.3345  4.5915
  325GLU     H551764   4.272   2.639   1.949  0.1635 -0.8718 -0.6770
  325GLU     H651765   4.144   2.471   1.772 -2.4357 -1.4711  1.1532
  325GLU     H751766   4.158   2.354   1.903  0.7310 -2.2322 -1.7724
  325GLU     H851767   4.398   2.394   1.903  1.1295 -0.2261 -0.7944
  325GLU     H951768   4.397   2.479   1.754 -1.8178  0.9297 -0.0030
  325GLU    H1051769   4.300   2.188   1.809 -1.4881  0.6233 -0.7665
  325GLU    H1151770   4.453   2.238   1.744  0.0219  0.4016  0.5806
  325GLU    H1251771   4.303   2.335   1.559 -0.5701  0.2165  0.0528
  325GLU    H1351772   4.179   2.057   1.427 -5.2940  1.5011  4.6216
  325GLU    H1451773   4.227   1.989   1.711  3.4369  0.4532 -3.0097
  325GLU    H1551774   4.091   1.907   1.606  0.5486  0.8738 -2.4420
  325GLU    H1651775   4.039   2.098   1.765 -1.3699  3.3909  0.1324
  326GLU     C151776   5.940   2.268   3.240 -0.0465  0.1081 -0.8180
  326GLU     C251777   5.931   2.229   3.389 -1.0093 -0.0744  0.6600
  326GLU     C351778   5.820   2.296   3.474  0.2182 -0.2007  0.5605
  326GLU     O151779   5.746   2.385   3.395 -0.9003 -1.1687  0.1614
  326GLU     C451780   5.688   2.303   3.289 -0.3235 -0.1449 -1.0887
  326GLU     C551781   5.563   2.376   3.232 -0.3990  0.3569  0.8244
  326GLU     C651782   5.460   2.407   3.349 -0.5858 -0.8239  1.0474
  326GLU     C751783   5.316   2.423   3.300  0.5174  0.5325  0.1019
  326GLU     C851784   5.204   2.442   3.405  0.4675 -0.0006 -0.0163
  326GLU     O251785   5.258   2.567   3.463  0.1742  0.2569  0.6922
  326GLU     C951786   5.189   2.638   3.567  0.8875  0.7293 -0.2418
  326GLU    C1051787   5.036   2.597   3.555  0.0710 -0.2946 -0.0546
  326GLU    C1151788   4.988   2.582   3.410  0.0317 -0.9661 -0.0118
  326GLU     O351789   5.072   2.470   3.348  0.4104 -0.7149 -0.3826
  326GLU     O451790   5.803   2.293   3.193 -0.0400 -0.2661 -0.0239
  326GLU     H151791   6.009   2.353   3.241 -0.0951  0.1567  0.5359
  326GLU     H251792   6.026   2.248   3.440 -0.0709 -0.8571 -0.7601
  326GLU     H351793   5.914   2.121   3.399 -1.7622 -0.0989 -0.7163
  326GLU     H451794   5.750   2.216   3.500 -2.4570  1.9742  0.4834
  326GLU     H551795   5.672   2.199   3.321 -2.3351 -0.0233 -1.5911
  326GLU     H651796   5.538   2.311   3.148 -2.2298  0.2088  1.4431
  326GLU     H751797   5.609   2.469   3.199  1.3860 -0.7921 -0.0749
  326GLU     H851798   5.501   2.501   3.389  0.8408 -0.5002 -1.0192
  326GLU     H951799   5.474   2.337   3.432 -1.4004  0.3241  2.1970
  326GLU    H1051800   5.297   2.334   3.240  2.2176  0.3975 -0.2746
  326GLU    H1151801   5.316   2.511   3.235 -1.6598  0.7798  0.3601
  326GLU    H1251802   5.195   2.353   3.469  0.2670 -2.1642 -2.8371
  326GLU    H1351803   5.225   2.604   3.664  1.3422  1.6148 -0.0856
  326GLU    H1451804   4.961   2.670   3.588 -3.2686 -2.5016 -2.1567
  326GLU    H1551805   5.006   2.510   3.614 -1.1215 -1.9406 -2.9000
  326GLU    H1651806   5.010   2.673   3.354 -1.5081 -2.3523 -3.1248
  327GLU     C151807   3.210   6.880   6.190  0.7280  0.0918 -0.2755
  327GLU     C251808   3.256   6.914   6.046 -0.3952  0.0705 -1.2411
  327GLU     C351809   3.316   6.792   5.982  1.0079  0.3444  0.6571
  327GLU     O151810   3.407   6.741   6.083 -0.2737  0.1942 -0.3317
  327GLU     C451811   3.372   6.711   6.224  0.2744 -0.4598 -0.3527
  327GLU     C551812   3.500   6.698   6.308  0.0340  0.2863  0.8488
  327GLU     C651813   3.468   6.612   6.431 -1.0427  0.1314  0.2806
  327GLU     C751814   3.600   6.618   6.522 -0.3404  0.3841  0.8914
  327GLU     C851815   3.590   6.554   6.671  0.4082 -0.8355  1.1429
  327GLU     O251816   3.558   6.652   6.774 -0.0144 -1.0342  0.0854
  327GLU     C951817   3.527   6.602   6.902  0.7202  0.8123 -0.5461
  327GLU    C1051818   3.486   6.449   6.896 -0.3525 -0.2291 -0.6936
  327GLU    C1151819   3.425   6.403   6.762  0.4803  0.6912 -0.8955
  327GLU     O351820   3.519   6.427   6.662  0.2506  0.0331 -0.3902
  327GLU     O451821   3.317   6.825   6.272  0.3155  0.2167 -0.5305
  327GLU     H151822   3.132   6.805   6.204 -2.3710  3.2442  0.7581
  327GLU     H251823   3.320   7.002   6.036  1.3357 -0.4152  3.2414
  327GLU     H351824   3.164   6.930   5.988 -3.7338 -2.2270  2.8163
  327GLU     H451825   3.229   6.724   5.980 -0.6672  2.3576  0.9605
  327GLU     H551826   3.317   6.618   6.241 -1.2737  0.5925  0.6544
  327GLU     H651827   3.538   6.791   6.351  2.1424 -0.3026  0.3969
  327GLU     H751828   3.582   6.653   6.250 -1.9990 -2.3293 -0.1891
  327GLU     H851829   3.430   6.513   6.402 -2.0129  1.2969 -2.8011
  327GLU     H951830   3.382   6.653   6.486  2.5622  0.3634  6.7243
  327GLU    H1051831   3.638   6.720   6.537 -1.2989  0.6964  1.2851
  327GLU    H1151832   3.679   6.571   6.462 -0.7013  0.7777  0.0953
  327GLU    H1251833   3.688   6.510   6.695  0.8233 -0.5858 -0.0012
  327GLU    H1351834   3.429   6.644   6.930  0.8214 -0.9393  3.0318
  327GLU    H1451835   3.420   6.426   6.981  0.6210  1.0681  0.4407
  327GLU    H1551836   3.574   6.385   6.898 -2.0854 -2.9036 -2.7094
  327GLU    H1651837   3.422   6.295   6.780  1.8106  0.6891 -0.5606
  328GLU     C151838   1.030   5.857   2.269  0.7456  1.0328 -0.4406
  328GLU     C251839   0.982   5.999   2.259 -0.4941  0.1840 -0.5702
  328GLU     C351840   1.065   6.071   2.144 -0.2239  0.5342 -0.0119
  328GLU     O151841   1.166   5.980   2.081  0.2669 -0.0133 -0.1701
  328GLU     C451842   1.241   5.901   2.165  0.7981  0.4464  1.1093
  328GLU     C551843   1.361   5.995   2.202  0.3951  0.6069 -0.5556
  328GLU     C651844   1.454   6.030   2.083  0.2066  0.5476  0.5178
  328GLU     C751845   1.462   5.927   1.961  0.3778 -0.1492  1.3736
  328GLU     C851846   1.381   5.971   1.828  0.9458 -0.5366  0.0831
  328GLU     O251847   1.479   5.938   1.725  0.0676  0.2075 -0.1185
  328GLU     C951848   1.518   5.795   1.699 -0.6111 -0.7936 -1.1447
  328GLU    C1051849   1.390   5.707   1.726  0.2223 -0.7188 -0.2901
  328GLU    C1151850   1.277   5.760   1.807  1.1627  0.3690 -0.5939
  328GLU     O351851   1.256   5.903   1.807 -0.6190 -0.4707  1.2561
  328GLU     O451852   1.169   5.851   2.282  0.5160 -0.0868 -0.2431
  328GLU     H151853   1.008   5.801   2.177  2.0060 -4.5432  2.2504
  328GLU     H251854   1.003   6.045   2.356  4.5100 -2.2647 -0.1903
  328GLU     H351855   0.879   6.015   2.224  0.7392  4.7522 -2.8336
  328GLU     H451856   1.118   6.162   2.176  1.5889 -0.4620 -0.0351
  328GLU     H551857   1.255   5.815   2.098 -1.2657  0.6675  0.3195
  328GLU     H651858   1.427   5.953   2.279  1.1160 -0.4025 -1.6991
  328GLU     H751859   1.323   6.095   2.226  3.1214  2.0602 -1.8551
  328GLU     H851860   1.552   6.055   2.125  0.7024  0.1080 -0.3458
  328GLU     H951861   1.431   6.129   2.041 -0.8034 -0.5784 -1.7505
  328GLU    H1051862   1.464   5.819   1.980 -2.0519 -0.2284  1.4546
  328GLU    H1151863   1.564   5.948   1.928  1.0525 -1.1349  2.7052
  328GLU    H1251864   1.369   6.080   1.836 -0.2649 -0.7873  2.8305
  328GLU    H1351865   1.597   5.760   1.766  1.1462  4.2861 -0.1271
  328GLU    H1451866   1.422   5.615   1.776  1.5411  0.0969  0.4215
  328GLU    H1551867   1.349   5.685   1.626 -0.5894  1.9252 -0.6175
  328GLU    H1651868   1.305   5.729   1.908  2.7763  3.0261 -0.1386
  329GLU     C151869   4.228   3.781   6.424 -0.6852  0.0887  0.0210
  329GLU     C251870   4.333   3.890   6.436  0.1536  0.9152  0.5598
  329GLU     C351871   4.342   3.983   6.316 -1.0350 -1.5579  0.2965
  329GLU     O151872   4.363   3.899   6.201  0.1246  0.6475  0.0256
  329GLU     C451873   4.282   3.779   6.183 -0.3191  0.9511  0.0822
  329GLU     C551874   4.345   3.691   6.076 -0.0975  0.3153  0.3416
  329GLU     C651875   4.250   3.617   6.000 -0.2282  0.3925 -0.8084
  329GLU     C751876   4.156   3.523   6.073 -0.4343 -1.5950 -0.7050
  329GLU     C851877   4.060   3.450   5.988 -0.1978 -0.2044  0.8110
  329GLU     O251878   4.121   3.422   5.849 -0.1203 -0.3854 -0.1978
  329GLU     C951879   4.200   3.295   5.846  1.5530  0.3443 -0.6941
  329GLU    C1051880   4.100   3.183   5.868 -0.7363 -0.3605  0.4878
  329GLU    C1151881   3.980   3.219   5.965  0.8479  0.4473  0.3246
  329GLU     O351882   4.022   3.330   6.048 -0.0396  0.6882  0.3826
  329GLU     O451883   4.275   3.712   6.306 -0.9649  0.7502  0.3733
  329GLU     H151884   4.126   3.818   6.406 -1.3907 -1.9132 -0.3195
  329GLU     H251885   4.436   3.853   6.445 -1.0107 -3.5498 -1.6820
  329GLU     H351886   4.320   3.946   6.529 -0.4380 -0.4877  1.3571
  329GLU     H451887   4.253   4.046   6.305 -0.7543 -1.3772 -1.2048
  329GLU     H551888   4.185   3.812   6.146 -0.6339  1.8795  1.6611
  329GLU     H651889   4.416   3.618   6.117 -1.3031  0.1521  2.2644
  329GLU     H751890   4.397   3.747   5.997 -1.3090 -0.4709 -1.0785
  329GLU     H851891   4.306   3.558   5.926  0.7532  0.4021 -0.0880
  329GLU     H951892   4.193   3.689   5.940  0.4169  1.8330  0.2582
  329GLU    H1051893   4.095   3.574   6.149  1.7089 -1.5375  1.1021
  329GLU    H1151894   4.218   3.452   6.129  1.8862 -0.3172 -1.5047
  329GLU    H1251895   3.977   3.521   5.971  0.6470  0.4021 -1.0684
  329GLU    H1351896   4.262   3.298   5.936 -2.3462  0.7484  2.2442
  329GLU    H1451897   4.148   3.095   5.911 -1.8047  0.7337  4.3183
  329GLU    H1551898   4.051   3.161   5.772  2.3852 -1.1218 -1.0741
  329GLU    H1651899   3.906   3.253   5.892 -0.6739 -1.2992  0.9740
  330GLU     C151900   5.912   6.158   3.963 -0.1905  1.0166 -0.6241
  330GLU     C251901   5.982   6.232   4.077 -0.4045  0.5469  0.0489
  330GLU     C351902   5.972   6.163   4.216  0.3094  0.5557  0.4708
  330GLU     O151903   5.841   6.113   4.219 -0.4161 -0.4445 -0.0602
  330GLU     C451904   5.798   6.010   4.138 -0.5036 -0.3040  0.7273
  330GLU     C551905   5.646   6.042   4.109 -0.1571 -0.4357  1.1732
  330GLU     C651906   5.578   6.174   4.152 -0.0914  1.0945 -0.4318
  330GLU     C751907   5.451   6.224   4.086 -0.0518  0.6432 -0.3066
  330GLU     C851908   5.463   6.207   3.927  0.5550 -0.3184  0.6549
  330GLU     O251909   5.336   6.227   3.853 -0.8002 -0.2760 -0.6838
  330GLU     C951910   5.353   6.286   3.717 -0.0334  0.2295 -1.1892
  330GLU    C1051911   5.389   6.430   3.758  0.2622 -0.1026 -0.2258
  330GLU    C1151912   5.499   6.445   3.861 -0.7798 -0.4138 -0.4873
  330GLU     O351913   5.556   6.314   3.872 -1.1913  0.1949 -0.2261
  330GLU     O451914   5.859   6.031   4.006  0.2377 -0.0456 -0.3920
  330GLU     H151915   5.816   6.210   3.952 -1.8464 -2.0001 -1.5613
  330GLU     H251916   5.937   6.331   4.068  0.3622  1.3369  3.5138
  330GLU     H351917   6.088   6.226   4.048 -0.7541 -3.2027 -0.9260
  330GLU     H451918   6.037   6.081   4.183 -3.2115 -0.5909 -4.9410
  330GLU     H551919   5.826   5.909   4.169  0.2696  0.0458  1.1999
  330GLU     H651920   5.600   5.948   4.141  3.5024 -2.3764  1.2272
  330GLU     H751921   5.645   6.043   3.999  1.7834  3.1352  1.0281
  330GLU     H851922   5.652   6.255   4.145  4.2313 -2.3407  0.9731
  330GLU     H951923   5.567   6.160   4.260  4.7611  0.2519  0.1798
  330GLU    H1051924   5.427   6.323   4.126 -1.3345  0.7095 -1.1645
  330GLU    H1151925   5.374   6.157   4.128  2.9179 -0.7741  3.4864
  330GLU    H1251926   5.485   6.103   3.903 -1.8590 -0.5959 -0.7250
  330GLU    H1351927   5.448   6.243   3.684  1.1765  0.6234  1.5014
  330GLU    H1451928   5.299   6.468   3.807  0.8748 -1.1155  1.7774
  330GLU    H1551929   5.392   6.495   3.669 -0.4082  0.6072  0.2482
  330GLU    H1651930   5.456   6.463   3.961  1.8914  0.8387  0.5301
  331GLU     C151931   6.193   2.900   7.005  0.4290 -0.1263 -1.1388
  331GLU     C251932   6.324   2.932   7.076 -0.1155 -0.1019 -0.0390
  331GLU     C351933   6.318   3.083   7.097  1.0272  0.4802  0.7353
  331GLU     O151934   6.289   3.163   6.972 -0.5186  0.8734 -0.1105
  331GLU     C451935   6.184   3.119   6.906  0.2913  0.5337 -0.4532
  331GLU     C551936   6.159   3.190   6.771 -0.6364 -0.1223  1.0027
  331GLU     C651937   6.250   3.166   6.647 -0.4567  0.0889 -0.1158
  331GLU     C751938   6.207   3.232   6.509  0.1191 -0.1530  0.5326
  331GLU     C851939   6.278   3.203   6.381  0.0105  0.0777 -1.4214
  331GLU     O251940   6.300   3.063   6.376 -0.7939  0.3269  0.1270
  331GLU     C951941   6.313   2.989   6.250  0.1806  0.1635  0.4786
  331GLU    C1051942   6.251   3.068   6.132  0.3225 -0.1352 -0.2458
  331GLU    C1151943   6.129   3.146   6.191 -0.3826 -0.2093 -0.1280
  331GLU     O351944   6.194   3.245   6.274 -0.0535  0.9244 -0.1163
  331GLU     O451945   6.203   2.980   6.884  0.2938 -0.6899 -0.5535
  331GLU     H151946   6.117   2.924   7.081  1.1555 -0.3468 -0.3313
  331GLU     H251947   6.419   2.911   7.024  1.4318  0.4149  2.4042
  331GLU     H351948   6.309   2.869   7.164 -3.4014 -2.6700 -2.1879
  331GLU     H451949   6.221   3.094   7.147 -0.2181 -0.5547 -1.2904
  331GLU     H551950   6.104   3.128   6.982 -0.8962  1.3055 -1.7495
  331GLU     H651951   6.133   3.296   6.778 -3.7454  0.1070 -5.8955
  331GLU     H751952   6.058   3.150   6.757 -1.0041  1.2207 -0.3733
  331GLU     H851953   6.284   3.063   6.633  0.0997  0.5241 -2.4080
  331GLU     H951954   6.337   3.225   6.680 -1.4455  0.2400  2.3886
  331GLU    H1051955   6.231   3.339   6.521  1.2494 -0.2890 -0.3110
  331GLU    H1151956   6.102   3.209   6.492  0.5293 -0.2173 -2.2674
  331GLU    H1251957   6.379   3.244   6.394  0.8435 -2.3167  0.6456
  331GLU    H1351958   6.259   2.894   6.251 -0.9141  0.5708 -3.3349
  331GLU    H1451959   6.220   2.995   6.056 -0.5902 -0.3857  0.3496
  331GLU    H1551960   6.321   3.147   6.101  0.4180 -0.1566 -0.0850
  331GLU    H1651961   6.068   3.086   6.259 -1.2962  3.4571  2.6127
  332GLU     C151962   7.751   4.193   3.990  0.3845 -0.2090 -0.4755
  332GLU     C251963   7.626   4.275   3.950 -1.0546 -0.9668 -0.7092
  332GLU     C351964   7.630   4.413   4.025  0.7502 -0.4161 -0.6066
  332GLU     O151965   7.760   4.476   4.016 -0.1386  0.2635 -0.3305
  332GLU     C451966   0.112   4.393   4.039 -0.8621 -0.3041 -1.1279
  332GLU     C551967   0.214   4.456   4.138  0.5216 -0.0737  0.4307
  332GLU     C651968   0.356   4.419   4.089  0.0255 -0.5463 -0.0924
  332GLU     C751969   0.476   4.456   4.179  0.3775 -0.2915  0.1816
  332GLU     C851970   0.610   4.434   4.100 -0.6746  0.0021 -0.0338
  332GLU     O251971   0.713   4.436   4.195  0.7129  0.2713 -0.1383
  332GLU     C951972   0.854   4.421   4.141  0.7183  1.3079  0.5957
  332GLU    C1051973   0.865   4.283   4.065  0.5178 -0.0738 -1.1797
  332GLU    C1151974   0.740   4.265   3.969  0.3391  1.2497 -0.0007
  332GLU     O351975   0.618   4.318   4.020  1.0927 -0.1188 -0.2028
  332GLU     O451976   0.075   4.265   4.082 -0.0350  0.0026 -0.0212
  332GLU     H151977   0.018   4.177   3.887 -1.8192  3.0826 -1.8301
  332GLU     H251978   7.528   4.231   3.971 -1.1095 -0.2719  0.6316
  332GLU     H351979   7.636   4.286   3.842  1.3618  1.2353 -0.3438
  332GLU     H451980   7.611   4.403   4.132 -0.6095  1.6407 -0.6090
  332GLU     H551981   0.162   4.389   3.942  1.0346  1.0418 -0.2668
  332GLU     H651982   0.194   4.417   4.238  0.6310  3.7865  2.1539
  332GLU     H751983   0.196   4.564   4.128 -3.0031 -0.5732  0.0410
  332GLU     H851984   0.385   4.453   3.989 -0.0173 -3.0832 -1.0594
  332GLU     H951985   0.352   4.310   4.100 -2.5196 -0.6208 -1.0082
  332GLU    H1051986   0.481   4.387   4.265 -0.1431 -2.5965 -1.5277
  332GLU    H1151987   0.468   4.560   4.213 -2.8242 -1.2471  2.9375
  332GLU    H1251988   0.623   4.512   4.025  3.3011 -1.7223 -1.4006
  332GLU    H1351989   0.876   4.498   4.066  2.8702  2.9126  2.7288
  332GLU    H1451990   0.875   4.195   4.130  3.4279  2.2342  1.8012
  332GLU    H1551991   0.950   4.294   3.997 -0.0021  1.1056 -1.6643
  332GLU    H1651992   0.742   4.156   3.961  1.2102  1.1695  1.0768
  333GLU     C151993   0.590   4.309   1.043 -0.5269  1.5434  0.2329
  333GLU     C251994   0.739   4.357   0.981 -0.1316  0.7420  0.4195
  333GLU     C351995   0.746   4.354   0.824  0.5325 -0.4431  0.4630
  333GLU     O151996   0.613   4.376   0.771  0.5536  0.4096 -0.7949
  333GLU     C451997   0.511   4.436   0.851 -0.7816  0.4571  0.4441
  333GLU     C551998   0.389   4.479   0.765 -0.1053  0.2633 -0.3823
  333GLU     C651999   0.332   4.351   0.708 -0.4179  1.9972 -0.5234
  333GLU     C752000   0.202   4.377   0.634 -0.3745 -0.1655  0.6545
  333GLU     C852001   0.121   4.240   0.621  0.8361 -0.0650 -0.0253
  333GLU     O252002   7.750   4.272   0.627  0.2710 -0.4325 -1.2852
  333GLU     C952003   7.672   4.142   0.617 -0.3061  0.2879 -0.6882
  333GLU    C1052004   7.704   4.076   0.483 -0.2637  0.1519  0.1451
  333GLU    C1152005   0.085   4.048   0.477 -0.1492  0.1250 -0.5436
  333GLU     O352006   0.155   4.173   0.503  1.2318  0.1764 -0.5652
  333GLU     O452007   0.489   4.376   0.976 -0.1168  0.1782 -0.6675
  333GLU     H152008   0.569   4.202   1.031 -2.4017  2.1331 -2.5466
  333GLU     H252009   0.806   4.284   1.028  1.5342  1.3063 -0.9667
  333GLU     H352010   0.756   4.460   1.017  0.7481  1.8996 -2.9585
  333GLU     H452011   0.793   4.451   0.806 -0.5690  0.2017  0.9479
  333GLU     H552012   0.555   4.535   0.864  0.5321  0.5672 -3.6015
  333GLU     H652013   0.416   4.540   0.678 -1.0849  1.1182 -0.1104
  333GLU     H752014   0.317   4.534   0.827 -0.6655  1.1078 -1.7334
  333GLU     H852015   0.323   4.272   0.784  3.4172 -0.5259 -2.3496
  333GLU     H952016   0.401   4.308   0.634  0.5035  2.4270  0.0703
  333GLU    H1052017   0.229   4.420   0.537 -0.7755  3.3526  1.9827
  333GLU    H1152018   0.142   4.456   0.681 -3.7838 -0.5803 -2.4886
  333GLU    H1252019   0.138   4.171   0.704 -4.6083 -2.9769 -0.8696
  333GLU    H1352020   7.682   4.076   0.704 -1.7558 -0.2719 -0.9165
  333GLU    H1452021   7.670   4.134   0.397  2.7021 -3.0906 -3.5870
  333GLU    H1552022   7.650   3.980   0.480  1.7537 -1.0901  1.3124
  333GLU    H1652023   0.105   3.969   0.551  1.3855  1.8597  0.9980
  334GLU     C152024   1.157   6.110   5.856 -0.8711  0.8269 -0.3557
  334GLU     C252025   1.035   6.029   5.901 -0.0292 -0.5539 -0.9900
  334GLU     C352026   1.015   6.081   6.050 -0.8635 -0.4002  0.6265
  334GLU     O152027   1.133   6.028   6.121 -1.0469 -0.3651 -0.2099
  334GLU     C452028   1.270   6.068   6.085  0.1447  0.1499  0.0839
  334GLU     C552029   1.374   5.976   6.153 -0.7741  0.5476 -0.2143
  334GLU     C652030   1.513   6.040   6.211  0.4038 -0.4053  1.3727
  334GLU     C752031   1.571   6.001   6.351 -0.2858 -0.5450  0.4612
  334GLU     C852032   1.601   6.127   6.431 -0.4057 -0.2791 -0.2368
  334GLU     O252033   1.568   6.106   6.572  0.0328  0.2892  0.3700
  334GLU     C952034   1.643   6.175   6.682 -0.4912  0.8446  0.1983
  334GLU    C1052035   1.789   6.176   6.649 -0.4655 -0.4479  1.1854
  334GLU    C1152036   1.802   6.245   6.508  0.5483 -0.8828  1.1031
  334GLU     O352037   1.741   6.152   6.424  0.8427  0.8626  1.6316
  334GLU     O452038   1.274   6.062   5.943 -0.3938  0.4208  0.0314
  334GLU     H152039   1.148   6.218   5.872  0.8485  1.1907 -1.4910
  334GLU     H252040   1.055   5.923   5.917 -3.5259 -0.8834  2.6682
  334GLU     H352041   0.955   6.045   5.828 -1.3093  1.5934  0.7469
  334GLU     H452042   1.027   6.190   6.043  0.1276 -0.5516 -6.0284
  334GLU     H552043   1.299   6.167   6.120  2.7822 -1.0631  1.6387
  334GLU     H652044   1.400   5.892   6.087  2.6385  1.2086  0.0736
  334GLU     H752045   1.306   5.936   6.230 -2.3110 -0.6211 -2.0936
  334GLU     H852046   1.491   6.147   6.200  1.5790 -0.3534 -1.1636
  334GLU     H952047   1.595   6.050   6.139 -0.0452  3.9933  1.1623
  334GLU    H1052048   1.649   5.924   6.351  0.9458  0.6577 -0.5403
  334GLU    H1152049   1.480   5.963   6.400  0.4402 -0.9534  1.5373
  334GLU    H1252050   1.554   6.222   6.401 -4.0091 -0.7375  3.0823
  334GLU    H1352051   1.641   6.095   6.757  3.9313  1.0568  0.7832
  334GLU    H1452052   1.824   6.072   6.646  3.1272  0.6193  1.1303
  334GLU    H1552053   1.853   6.229   6.721 -1.0092  2.4589 -0.3072
  334GLU    H1652054   1.743   6.337   6.517  1.0602  0.2482 -4.1095
  335GLU     C152055   1.147   0.679   4.065  1.0157  0.0674 -0.9362
  335GLU     C252056   1.083   0.738   3.938 -0.3632 -0.3513  0.2945
  335GLU     C352057   1.002   0.664   3.836 -0.6298 -0.2490  0.2234
  335GLU     O152058   0.914   0.590   3.919  0.6527  1.3324  0.2007
  335GLU     C452059   0.955   0.534   4.044 -0.1372  1.2541 -0.8630
  335GLU     C552060   1.027   0.390   4.014 -1.6307 -0.4196 -0.8035
  335GLU     C652061   0.928   0.276   3.989  0.1395 -1.2476  0.3290
  335GLU     C752062   1.005   0.140   3.950 -0.0578 -0.4954 -0.1710
  335GLU     C852063   0.909   0.034   3.899 -0.4791  0.7438  0.2435
  335GLU     O252064   0.985   7.594   3.885  0.7185  0.1092  0.6438
  335GLU     C952065   0.916   7.462   3.866  0.2268  0.0065  0.3502
  335GLU    C1052066   0.772   7.473   3.912  0.4418  0.1734 -0.5179
  335GLU    C1152067   0.770   7.557   4.038  0.4136 -0.0878 -0.3822
  335GLU     O352068   0.797   0.016   3.988  0.8513 -0.7915  0.0583
  335GLU     O452069   1.030   0.622   4.125  0.1786  0.5390 -0.3895
  335GLU     H152070   1.217   0.599   4.036  0.2727 -1.4421  1.2048
  335GLU     H252071   1.156   0.809   3.897  0.1173  1.3324  3.6826
  335GLU     H352072   1.008   0.806   3.980 -3.4894 -3.2184 -0.2763
  335GLU     H452073   1.065   0.590   3.785  3.7426  2.2186  1.4874
  335GLU     H552074   0.863   0.500   4.092  0.7544 -1.1895 -0.7376
  335GLU     H652075   1.080   0.373   4.109 -5.8217 -3.2670  1.3394
  335GLU     H752076   1.096   0.386   3.929 -3.4057 -2.7850 -2.2676
  335GLU     H852077   0.877   0.305   3.896 -4.5212  1.1846  3.2054
  335GLU     H952078   0.851   0.273   4.067  1.3088  3.2604  1.9878
  335GLU    H1052079   1.033   0.102   4.049 -1.4331 -2.1639 -0.3774
  335GLU    H1152080   1.082   0.137   3.873  1.9629 -2.8244  1.7617
  335GLU    H1252081   0.861   0.054   3.803  0.3545  1.3725 -0.0516
  335GLU    H1352082   0.908   7.438   3.759  2.9088 -0.5097  0.2064
  335GLU    H1452083   0.724   7.377   3.932 -2.7243  1.6642 -0.4751
  335GLU    H1552084   0.699   7.509   3.838 -1.3195 -3.2894 -0.6433
  335GLU    H1652085   0.843   7.532   4.116  0.7536  3.9565  0.8289
  336GLU     C152086   1.331   5.103   2.405 -1.1060 -0.4919 -0.7219
  336GLU     C252087   1.424   5.073   2.281  0.7605 -0.5603 -0.1501
  336GLU     C352088   1.465   4.934   2.295 -0.8103  0.2575 -0.5243
  336GLU     O152089   1.355   4.845   2.266  0.6928 -0.6565  0.2632
  336GLU     C452090   1.236   4.875   2.348 -0.6823 -0.4337  0.4055
  336GLU     C552091   1.167   4.757   2.423  0.8129  0.2002  0.1453
  336GLU     C652092   1.235   4.697   2.546 -0.1184  0.5205 -1.0463
  336GLU     C752093   1.140   4.645   2.658  0.2598  0.9781  0.0205
  336GLU     C852094   1.204   4.570   2.774  1.2587  1.0180 -0.5398
  336GLU     O252095   1.310   4.485   2.741 -0.2465  0.3748 -0.2440
  336GLU     C952096   1.356   4.386   2.844  0.1735  0.0322  0.1212
  336GLU    C1052097   1.327   4.446   2.982  0.0339 -0.4994 -0.0953
  336GLU    C1152098   1.331   4.603   2.977 -0.1180 -0.8834 -0.6085
  336GLU     O352099   1.257   4.663   2.871 -0.2808 -0.8175  0.9238
  336GLU     O452100   1.257   4.985   2.438  0.0286 -0.0770 -1.2506
  336GLU     H152101   1.404   5.127   2.484 -2.0557 -0.3111  0.1351
  336GLU     H252102   1.500   5.151   2.263  0.0371  1.2674  3.5664
  336GLU     H352103   1.368   5.072   2.187  0.2117  1.4314  0.0918
  336GLU     H452104   1.495   4.905   2.396  4.3997 -3.5131 -2.7195
  336GLU     H552105   1.157   4.890   2.273 -0.4951  0.8158  0.4385
  336GLU     H652106   1.152   4.668   2.361  3.8191  0.2750 -0.8363
  336GLU     H752107   1.061   4.785   2.434  1.5028  2.5548  1.4854
  336GLU     H852108   1.278   4.790   2.585 -1.1941  1.4857 -2.1042
  336GLU     H952109   1.296   4.613   2.510 -1.6689 -0.2354 -2.0537
  336GLU    H1052110   1.068   4.574   2.617 -0.9909  0.7250  2.4760
  336GLU    H1152111   1.075   4.725   2.696 -4.9649 -1.7961 -2.1184
  336GLU    H1252112   1.123   4.511   2.820  0.7614 -0.7634 -3.4250
  336GLU    H1352113   1.298   4.295   2.825  0.2690  0.0286 -0.1661
  336GLU    H1452114   1.391   4.405   3.061 -1.4675 -3.7578 -0.3707
  336GLU    H1552115   1.228   4.423   3.023  0.5488 -1.4220  0.6987
  336GLU    H1652116   1.435   4.639   2.974 -0.1612 -0.6512  0.5188
  337GLU     C152117   5.709   0.938   5.149 -0.3830  0.7497 -0.7311
  337GLU     C252118   5.781   1.029   5.039 -0.6107 -0.3543 -0.8432
  337GLU     C352119   5.805   1.184   5.079 -1.0849 -0.1563  0.7483
  337GLU     O152120   5.742   1.202   5.199 -0.6751 -0.2372 -0.0893
  337GLU     C452121   5.773   1.113   5.307  0.5675  1.3638  0.2687
  337GLU     C552122   5.666   1.161   5.412  0.2932 -0.0771 -0.7187
  337GLU     C652123   5.655   1.068   5.533  0.6350 -0.5409 -0.2814
  337GLU     C752124   5.720   1.135   5.658  1.7774  0.1619  0.0298
  337GLU     C852125   5.874   1.169   5.648  0.7357  0.0866 -0.5996
  337GLU     O252126   5.894   1.271   5.547  0.7369  0.5817  0.3757
  337GLU     C952127   6.017   1.341   5.525  0.1542  0.5384 -0.2035
  337GLU    C1052128   6.072   1.372   5.672 -0.1876 -0.6248 -0.3334
  337GLU    C1152129   5.957   1.355   5.772 -0.3320  0.4721  0.3165
  337GLU     O352130   5.915   1.222   5.777  0.2207 -0.3415  0.2911
  337GLU     O452131   5.764   0.972   5.276  0.1545 -0.6268 -0.6400
  337GLU     H152132   5.601   0.956   5.146 -0.0467  2.9698 -1.0810
  337GLU     H252133   5.711   1.040   4.955 -1.5357 -0.8459 -0.1455
  337GLU     H352134   5.874   0.982   5.004  0.4235  0.9761  0.0193
  337GLU     H452135   5.911   1.203   5.101 -1.3938  0.7603  1.5008
  337GLU     H552136   5.871   1.127   5.353  0.8391  0.5952 -0.0531
  337GLU     H652137   5.569   1.160   5.362  0.2403 -3.5876 -0.8449
  337GLU     H752138   5.673   1.264   5.448  1.1246 -0.5108  0.4283
  337GLU     H852139   5.687   0.964   5.518 -0.3352 -0.7556 -0.9508
  337GLU     H952140   5.549   1.073   5.560  0.7299  4.0218  0.0622
  337GLU    H1052141   5.706   1.064   5.741 -1.5290 -0.9382 -1.3095
  337GLU    H1152142   5.673   1.228   5.690  0.9066 -0.5024  0.7514
  337GLU    H1252143   5.937   1.085   5.615  2.5332  0.1335  2.3841
  337GLU    H1352144   5.995   1.436   5.475  0.7096  0.6539 -0.2333
  337GLU    H1452145   6.108   1.475   5.682 -3.0978  0.2230  3.6036
  337GLU    H1552146   6.142   1.293   5.703 -0.0503 -1.2366 -2.0837
  337GLU    H1652147   5.875   1.414   5.729  1.7480  0.2412 -4.7053
  338GLU     C152148   7.518   0.227   2.631 -0.1856  1.3018  1.3839
  338GLU     C252149   7.520   0.331   2.734  0.7950  1.0323  0.0080
  338GLU     C352150   7.648   0.402   2.745 -0.2497  0.3689 -0.4679
  338GLU     O152151   7.670   0.479   2.623 -0.8783  1.0735  0.1935
  338GLU     C452152   7.611   0.416   2.500 -0.3778  0.1912 -1.2147
  338GLU     C552153   7.697   0.441   2.380  0.7244  0.1260 -0.5268
  338GLU     C652154   7.689   0.579   2.294  0.3994 -0.1559  0.1146
  338GLU     C752155   0.063   0.619   2.218 -0.3436 -0.0694 -0.1787
  338GLU     C852156   0.071   0.745   2.133  0.6639 -0.1446 -1.0166
  338GLU     O252157   0.066   0.865   2.206 -0.7601 -0.3886  0.6718
  338GLU     C952158   0.083   0.989   2.137  0.2407 -0.1145  0.1585
  338GLU    C1052159   0.147   0.968   1.994  0.2821 -0.3433 -0.8611
  338GLU    C1152160   0.264   0.865   2.017  0.1605  0.0411 -0.2598
  338GLU     O352161   0.188   0.749   2.032 -0.3725  0.4975  0.0556
  338GLU     O452162   7.602   0.269   2.525  0.7059 -0.9604  0.2050
  338GLU     H152163   7.420   0.221   2.582  1.5331 -5.3799 -2.6103
  338GLU     H252164   7.499   0.278   2.827  2.7743 -0.7945 -0.5111
  338GLU     H352165   7.435   0.401   2.726  0.1876  0.3475  0.4240
  338GLU     H452166   7.727   0.326   2.740 -0.2750  0.3155 -0.1370
  338GLU     H552167   7.511   0.461   2.497 -0.8830 -0.7440  0.3539
  338GLU     H652168   7.695   0.352   2.316 -1.3124  0.9849 -1.7610
  338GLU     H752169   0.038   0.421   2.398  0.3198 -3.0558 -1.0868
  338GLU     H852170   7.642   0.658   2.354  1.4243  1.1092 -0.6792
  338GLU     H952171   7.608   0.576   2.219 -3.0560  3.1763  3.2607
  338GLU    H1052172   0.083   0.539   2.146 -0.0335  1.9781 -2.4933
  338GLU    H1152173   0.137   0.630   2.299  0.5178  3.4795 -1.2915
  338GLU    H1252174   7.744   0.748   2.074  1.5078  1.0138 -2.3318
  338GLU    H1352175   7.760   1.052   2.124  0.5584  0.8123  2.0535
  338GLU    H1452176   0.184   1.062   1.952 -1.5945  1.4876  1.3148
  338GLU    H1552177   0.068   0.925   1.932 -2.0183  0.8874  1.0772
  338GLU    H1652178   0.314   0.895   2.110  1.6191 -0.8033 -0.7344
  339GLU     C152179   7.443   1.782   1.263 -0.4379 -0.0815 -0.5858
  339GLU     C252180   7.515   1.690   1.351  0.7198  0.6438  0.3354
  339GLU     C352181   7.587   1.748   1.475 -0.8063  0.1987  0.1032
  339GLU     O152182   7.558   1.883   1.466  0.1849  0.3156 -0.1565
  339GLU     C452183   7.415   1.907   1.480 -0.1038 -1.2252 -0.8942
  339GLU     C552184   7.369   2.053   1.503  0.2312 -0.7183 -0.0484
  339GLU     C652185   7.237   2.049   1.586  0.2162  0.7589  0.6848
  339GLU     C752186   7.231   1.943   1.699  0.6929 -0.7483  0.3377
  339GLU     C852187   7.169   1.806   1.691 -0.2447 -0.8100  0.1688
  339GLU     O252188   7.065   1.789   1.581  0.3978  0.0845  0.7576
  339GLU     C952189   7.105   1.716   1.474  1.3450 -0.8693  0.3736
  339GLU    C1052190   7.172   1.579   1.509  0.5866 -0.2070  0.4029
  339GLU    C1152191   7.288   1.595   1.612  0.6110  0.6047 -0.1729
  339GLU     O352192   7.267   1.699   1.698 -0.2049 -0.5920 -1.0952
  339GLU     O452193   7.365   1.866   1.347  0.5572  0.9496 -0.9696
  339GLU     H152194   7.514   1.847   1.211 -0.8462  3.2021  2.5180
  339GLU     H252195   7.587   1.636   1.289 -1.1349  0.4581 -1.7713
  339GLU     H352196   7.448   1.606   1.375 -0.5085  1.0247 -1.6046
  339GLU     H452197   7.539   1.716   1.568  1.0326  0.0825  1.0672
  339GLU     H552198   7.381   1.844   1.562 -0.9123 -0.1881 -0.4050
  339GLU     H652199   7.358   2.119   1.416  3.2602  0.3691  0.2780
  339GLU     H752200   7.448   2.100   1.562  0.4811 -1.9355  0.6273
  339GLU     H852201   7.158   2.031   1.512  1.6719  0.1700 -0.7921
  339GLU     H952202   7.225   2.151   1.626  2.5709  1.4344 -0.1662
  339GLU    H1052203   7.155   1.998   1.757 -2.3926 -3.6137 -0.6496
  339GLU    H1152204   7.330   1.954   1.745  1.2087  2.2132 -1.2183
  339GLU    H1252205   7.107   1.801   1.781 -3.2054 -0.0499 -1.6775
  339GLU    H1352206   7.182   1.777   1.426  0.1875 -0.0357 -0.4779
  339GLU    H1452207   7.202   1.542   1.410 -1.1386  0.6695 -0.4831
  339GLU    H1552208   7.094   1.510   1.543  0.0744 -1.2974 -2.6578
  339GLU    H1652209   7.378   1.626   1.558  1.7183  1.7012  2.1789
  340GLU     C152210   4.741   3.873   7.719 -0.2372 -0.7767 -0.8673
  340GLU     C252211   4.868   3.952   7.776 -0.7501  1.0607 -0.0871
  340GLU     C352212   4.855   4.109   7.768  0.0828 -0.6561 -0.2465
  340GLU     O152213   4.820   4.128   7.625 -0.3501 -0.6086 -1.0433
  340GLU     C452214   4.689   4.079   7.589 -0.8852  0.2446 -0.9299
  340GLU     C552215   4.640   4.135   7.453 -0.4961 -0.0059  0.0115
  340GLU     C652216   4.689   4.275   7.414 -0.8226 -0.0774 -1.0350
  340GLU     C752217   4.603   4.347   7.307  0.3218  0.2632 -0.4847
  340GLU     C852218   4.629   4.502   7.272  1.1801 -0.0932 -0.7121
  340GLU     O252219   4.759   4.532   7.213 -1.3111 -0.7333 -0.6102
  340GLU     C952220   4.808   4.667   7.225  0.2543 -0.3703  0.7857
  340GLU    C1052221   4.680   4.761   7.203  0.0757  0.3291  1.5377
  340GLU    C1152222   4.561   4.687   7.120  0.0189 -0.0028  0.8949
  340GLU     O352223   4.526   4.564   7.181  0.0628  0.5377 -0.1351
  340GLU     O452224   4.691   3.938   7.604  0.2031 -0.2968  0.1943
  340GLU     H152225   4.785   3.775   7.694  0.1733 -1.6264  2.6913
  340GLU     H252226   4.949   3.932   7.705 -1.5428  0.1200 -0.7528
  340GLU     H352227   4.903   3.919   7.875 -2.2640  1.7906  0.7185
  340GLU     H452228   4.770   4.136   7.832  0.1054 -0.5646 -0.2547
  340GLU     H552229   4.627   4.110   7.675 -0.6586  0.2059 -0.7518
  340GLU     H652230   4.533   4.129   7.429 -0.7868  1.6109  0.7416
  340GLU     H752231   4.705   4.071   7.393  1.0293 -1.0520  2.6424
  340GLU     H852232   4.792   4.273   7.377  0.3770 -0.3701  2.0438
  340GLU     H952233   4.695   4.336   7.504  2.0203 -3.2028  1.1271
  340GLU    H1052234   4.507   4.346   7.358  0.2209 -1.8194 -0.6442
  340GLU    H1152235   4.604   4.283   7.218  4.2513 -0.5671 -0.0199
  340GLU    H1252236   4.640   4.551   7.369  5.8207  2.2539 -2.1129
  340GLU    H1352237   4.875   4.689   7.141  0.0912  1.6442  1.1342
  340GLU    H1452238   4.719   4.855   7.163  4.3249 -1.8951 -0.1591
  340GLU    H1552239   4.643   4.798   7.299  1.0136  3.3104  0.8652
  340GLU    H1652240   4.595   4.661   7.019 -0.5821 -2.8753  1.3474
  341GLU     C152241   2.699   0.213   7.983  0.1167  0.3194  0.3262
  341GLU     C252242   2.633   0.180   7.852  0.5819 -0.5758  1.3722
  341GLU     C352243   2.685   0.244   7.728 -0.3082 -0.5264  0.5561
  341GLU     O152244   2.691   0.388   7.749  1.0352 -0.1965  0.5535
  341GLU     C452245   2.740   0.449   7.870  0.1790 -0.3822 -0.1866
  341GLU     C552246   2.616   0.545   7.912 -0.4569 -0.2284  1.0384
  341GLU     C652247   2.642   0.700   7.875  1.2028 -0.9269 -0.7715
  341GLU     C752248   2.538   0.808   7.948  0.5741  0.1732 -0.0095
  341GLU     C852249   2.547   0.955   7.907 -0.8561  1.1157  0.3091
  341GLU     O252250   2.417   1.006   7.901  0.2275 -0.5746 -0.8557
  341GLU     C952251   2.420   1.149   7.846  0.1402  0.4957  0.7665
  341GLU    C1052252   2.493   1.234   7.948  0.3723  0.3774 -0.0262
  341GLU    C1152253   2.585   1.165   8.055  0.1944 -1.0218  0.6342
  341GLU     O352254   2.613   1.032   8.008  0.1869  0.0921 -0.1722
  341GLU     O452255   2.772   0.347   7.980  0.5570  0.7180  0.1641
  341GLU     H152256   2.630   0.205   8.068  0.6506 -0.3306  0.7085
  341GLU     H252257   2.524   0.177   7.851  0.5118 -4.7599  1.7094
  341GLU     H352258   2.654   0.074   7.831  0.8161 -0.0419 -1.4910
  341GLU     H452259   2.614   0.222   7.647 -1.6166  0.0461  1.5102
  341GLU     H552260   2.823   0.520   7.868 -1.1623  1.4107  1.9066
  341GLU     H652261   2.588   0.536   8.017 -2.0084 -0.4599  0.6349
  341GLU     H752262   2.532   0.503   7.854  0.2625  0.9586 -0.9552
  341GLU     H852263   2.631   0.713   7.767  0.3431  0.1374 -0.5766
  341GLU     H952264   2.749   0.713   7.892  0.8758  0.3567  0.5719
  341GLU    H1052265   2.547   0.804   8.057 -0.6101 -2.7887  0.0652
  341GLU    H1152266   2.438   0.771   7.922 -0.5966  3.4383 -0.6858
  341GLU    H1252267   2.595   0.964   7.809 -2.8444 -3.7944 -1.3957
  341GLU    H1352268   2.468   1.169   7.750  0.9904 -1.9492  0.6097
  341GLU    H1452269   2.418   1.305   7.983 -3.3326 -2.1456 -2.1180
  341GLU    H1552270   2.552   1.294   7.878 -2.5026  2.5955 -0.7325
  341GLU    H1652271   2.519   1.160   0.045 -5.4266 -0.1624 -3.0744
  342GLU     C152272   2.776   2.476   3.722  0.8318 -0.3885 -0.3754
  342GLU     C252273   2.665   2.525   3.872  0.0953 -0.4568 -0.5229
  342GLU     C352274   2.745   2.536   4.058  0.4147  0.1189  0.8687
  342GLU     O152275   2.914   2.462   4.074 -0.9966  0.2689 -0.3124
  342GLU     C452276   3.024   2.405   3.920 -0.9328  0.0218 -0.0750
  342GLU     C552277   3.105   2.274   3.944 -0.2042 -1.4579 -0.2635
  342GLU     C652278   3.229   2.269   3.857 -0.6686 -0.3036  0.7639
  342GLU     C752279   3.321   2.138   3.853  0.7591 -0.9654  0.7234
  342GLU     C852280   3.452   2.128   3.915  0.3265 -0.9662 -0.3719
  342GLU     O252281   3.515   1.984   3.899 -0.1991 -0.3557 -0.0705
  342GLU     C952282   3.573   1.960   3.773 -0.1511  0.9375  0.0415
  342GLU    C1052283   3.688   2.064   3.773  0.7751 -0.5284 -0.1126
  342GLU    C1152284   3.631   2.206   3.763  0.2953  0.0152 -0.0120
  342GLU     O352285   3.538   2.235   3.866 -0.3027 -0.3408 -0.3286
  342GLU     O452286   2.938   2.407   3.750  0.0654  0.2488 -0.4030
  342GLU     H152287   2.780   2.576   3.677 -2.0763  0.6802  1.4620
  342GLU     H252288   2.565   2.482   3.883 -3.2655  6.2270  0.1656
  342GLU     H352289   2.617   2.617   3.834  0.5374  0.0969  0.2310
  342GLU     H452290   2.758   2.645   4.067  1.0409  0.0684  0.6734
  342GLU     H552291   3.100   2.483   3.912 -0.6728 -0.1030  1.0042
  342GLU     H652292   3.049   2.185   3.913 -0.0362 -0.9193 -2.2573
  342GLU     H752293   3.126   2.271   4.051 -0.8478  1.0236 -0.0158
  342GLU     H852294   3.296   2.350   3.891 -2.2368  0.0654  3.2138
  342GLU     H952295   3.198   2.289   3.754 -0.6749  4.5903  1.4700
  342GLU    H1052296   3.336   2.122   3.746 -2.8236 -0.6325  0.0538
  342GLU    H1152297   3.274   2.042   3.876 -0.9196  0.3574  3.4811
  342GLU    H1252298   3.448   2.144   4.023  1.6497 -3.1005  0.0516
  342GLU    H1352299   3.494   1.978   3.700 -3.0777 -2.3732  2.0717
  342GLU    H1452300   3.754   2.045   3.688 -1.5493 -0.7157 -1.9763
  342GLU    H1552301   3.742   2.051   3.868  2.2268  6.0158  0.4331
  342GLU    H1652302   3.718   2.272   3.762 -1.5889  2.7923 -3.2277
  343GLU     C152303   4.491   4.560   7.645 -0.0082 -0.5838 -1.3493
  343GLU     C252304   4.588   4.647   7.738 -0.0330  0.2398 -0.3558
  343GLU     C352305   4.515   4.780   7.782 -0.6521  0.5601  0.4864
  343GLU     O152306   4.509   4.843   7.650  0.3293  0.9673  0.4600
  343GLU     C452307   4.403   4.771   7.561 -0.2586 -0.0896 -1.4050
  343GLU     C552308   4.353   4.836   7.434 -0.6339  0.0027 -0.2803
  343GLU     C652309   4.280   4.975   7.437  0.0220 -0.2937 -0.9217
  343GLU     C752310   4.365   5.098   7.448 -1.0250 -0.6687  0.8339
  343GLU     C852311   4.280   5.221   7.442  0.2948 -0.3637  0.1127
  343GLU     O252312   4.257   5.265   7.583  1.5514  0.1780  0.1149
  343GLU     C952313   4.196   5.400   7.602  0.1223 -1.1624 -0.9218
  343GLU    C1052314   4.300   5.501   7.528 -0.2680 -0.3238 -0.5695
  343GLU    C1152315   4.298   5.456   7.381  0.1861 -0.0452  0.6953
  343GLU     O352316   4.360   5.332   7.385 -1.0163  1.5799  0.6046
  343GLU     O452317   4.430   4.635   7.531 -0.1826 -0.1605 -0.8076
  343GLU     H152318   4.553   4.479   7.606 -0.2094 -0.7474 -1.3321
  343GLU     H252319   4.683   4.672   7.690  1.1052  1.3133  2.2648
  343GLU     H352320   4.619   4.594   7.829 -2.5861 -1.9435 -0.6254
  343GLU     H452321   4.420   4.750   7.828 -0.0995  1.6981  2.5109
  343GLU     H552322   4.310   4.763   7.618 -0.6804  0.1649 -2.0436
  343GLU     H652323   4.275   4.771   7.393 -2.4441 -0.0658  2.9295
  343GLU     H752324   4.440   4.828   7.369 -0.7379  0.3082 -0.4568
  343GLU     H852325   4.233   4.970   7.536  1.4562 -2.5464 -0.2719
  343GLU     H952326   4.202   4.978   7.360 -0.8287  2.1589 -0.0405
  343GLU    H1052327   4.423   5.099   7.355 -1.4958  3.1778  0.4209
  343GLU    H1152328   4.433   5.096   7.534 -0.4688 -1.9648  0.3946
  343GLU    H1252329   4.182   5.196   7.401  0.1373 -4.9434  2.6269
  343GLU    H1352330   4.196   5.428   7.708 -5.6102  2.9907 -1.5232
  343GLU    H1452331   4.400   5.496   7.573 -0.4472 -1.3144 -0.2484
  343GLU    H1552332   4.263   5.604   7.538 -2.2931 -0.9967 -0.7595
  343GLU    H1652333   4.198   5.446   7.337  0.4682 -0.1473  0.0740
  344GLU     C152334   2.073   2.190   4.154  0.6304  0.4353 -0.9539
  344GLU     C252335   2.150   2.306   4.223 -1.0653  0.0524 -0.2999
  344GLU     C352336   2.109   2.358   4.367 -0.4207 -0.3988  0.0874
  344GLU     O152337   1.976   2.305   4.396  0.2251 -0.1276 -0.0730
  344GLU     C452338   1.922   2.179   4.353  1.3541  0.5880  0.7857
  344GLU     C552339   1.781   2.198   4.292  0.5499 -0.4234 -0.2378
  344GLU     C652340   1.647   2.131   4.352 -0.5169 -0.6490 -0.6717
  344GLU     C752341   1.529   2.123   4.246  0.4870  0.1288  1.2727
  344GLU     C852342   1.390   2.080   4.300 -0.0079 -0.1109  0.2559
  344GLU     O252343   1.296   2.103   4.194 -0.3569  0.3547  0.6132
  344GLU     C952344   1.168   2.033   4.185 -0.2608 -0.1941 -0.0673
  344GLU    C1052345   1.144   1.962   4.312 -0.0837 -0.5305 -0.2237
  344GLU    C1152346   1.255   1.896   4.390 -0.0739  1.6761 -0.7072
  344GLU     O352347   1.384   1.940   4.343  0.4832  0.3986  0.3704
  344GLU     O452348   1.996   2.110   4.250  0.0950 -0.5680  0.1794
  344GLU     H152349   1.990   2.232   4.096 -3.5818 -2.2034  2.5136
  344GLU     H252350   2.137   2.397   4.163  1.1348  1.0229  0.5681
  344GLU     H352351   2.259   2.292   4.217 -0.6872  1.0660  2.4815
  344GLU     H452352   2.112   2.467   4.356  3.1690 -0.5355 -1.8817
  344GLU     H552353   1.910   2.122   4.446 -2.3705  1.9492  1.3071
  344GLU     H652354   1.778   2.152   4.193 -1.7148 -2.8795  0.8576
  344GLU     H752355   1.769   2.306   4.280 -0.5238 -0.1266  2.7565
  344GLU     H852356   1.611   2.196   4.434 -3.1337 -0.8876 -1.5312
  344GLU     H952357   1.665   2.032   4.396  0.3232  0.1960  0.9801
  344GLU    H1052358   1.553   2.041   4.178  0.9910 -1.8531  3.7063
  344GLU    H1152359   1.534   2.216   4.188  0.7723  0.4385  1.7775
  344GLU    H1252360   1.354   2.133   4.389  3.8033  3.3821  0.0131
  344GLU    H1352361   1.092   2.105   4.152  1.0437  1.6901  0.8257
  344GLU    H1452362   1.065   1.890   4.287 -1.7937  1.9807 -2.6364
  344GLU    H1552363   1.068   2.017   4.370 -2.1771  0.4869 -3.5912
  344GLU    H1652364   1.233   1.934   4.490  0.8096 -0.6978  0.4755
  345GLU     C152365   2.699   0.367   3.080 -1.3836 -0.5533  0.1307
  345GLU     C252366   2.638   0.227   3.108 -0.2501  0.3891  1.2369
  345GLU     C352367   2.488   0.218   3.082 -1.1495 -0.1988  0.3688
  345GLU     O152368   2.429   0.313   3.162 -0.0225 -0.5130 -0.0457
  345GLU     C452369   2.462   0.462   3.137  0.1115  0.9640  0.1320
  345GLU     C552370   2.408   0.550   3.249  0.2311 -0.2499  0.4652
  345GLU     C652371   2.302   0.649   3.217  0.8332 -0.0991 -0.4434
  345GLU     C752372   2.211   0.669   3.353  0.2734 -0.5495  0.2239
  345GLU     C852373   2.115   0.790   3.366 -0.4881  0.7201 -0.7482
  345GLU     O252374   1.997   0.735   3.431 -0.1121  0.3778  0.9904
  345GLU     C952375   1.927   0.815   3.540  0.8988  0.1279 -0.4418
  345GLU    C1052376   1.948   0.966   3.524 -0.1243  0.6909 -0.2995
  345GLU    C1152377   2.101   0.999   3.514  0.3513  0.4084 -0.8777
  345GLU     O352378   2.173   0.900   3.435 -0.5700  0.2121 -0.0796
  345GLU     O452379   2.609   0.471   3.142 -0.2911  0.4243 -0.2437
  345GLU     H152380   2.714   0.377   2.972  0.2612  1.0928  0.4701
  345GLU     H252381   2.662   0.214   3.214 -3.7507  3.5858  2.6529
  345GLU     H352382   2.664   0.149   3.036  2.2141  3.1276 -1.0868
  345GLU     H452383   2.464   0.239   2.978  0.4362  2.0821  0.3754
  345GLU     H552384   2.429   0.500   3.040  0.0388  1.1223  0.2182
  345GLU     H652385   2.490   0.600   3.302 -0.3587 -0.4873  1.6188
  345GLU     H752386   2.379   0.481   3.329 -0.9704  1.7242  1.8235
  345GLU     H852387   2.243   0.616   3.130 -0.4727 -1.7380  1.0060
  345GLU     H952388   2.346   0.744   3.183  1.6168  1.1508  3.5876
  345GLU    H1052389   2.294   0.686   3.422  0.0221  1.2379  0.1429
  345GLU    H1152390   2.169   0.570   3.373 -0.1704 -0.2691  0.7186
  345GLU    H1252391   2.081   0.818   3.266 -1.9033 -3.4301 -1.6068
  345GLU    H1352392   1.951   0.795   3.645 -3.8622 -2.9300  0.3491
  345GLU    H1452393   1.902   0.998   3.619  1.1142 -1.2270  1.0411
  345GLU    H1552394   1.896   0.992   3.432 -2.2066 -0.1070  0.5950
  345GLU    H1652395   2.147   0.985   3.613 -2.0912 -0.1995  0.2495
  346GLU     C152396   0.382   7.422   1.124  0.5548  0.4889  0.7359
  346GLU     C252397   0.377   7.569   1.085 -0.6215 -0.7871 -0.2548
  346GLU     C352398   0.235   7.609   1.046  0.0552 -0.5199  0.1739
  346GLU     O152399   0.127   7.520   1.098  0.4487  0.0471 -0.3213
  346GLU     C452400   0.131   7.431   1.210  0.9274 -0.3426 -0.9767
  346GLU     C552401   0.035   7.307   1.213  0.0829  0.1865  0.4754
  346GLU     C652402   7.673   7.294   1.307  0.7680 -0.7152 -0.5461
  346GLU     C752403   7.632   7.145   1.342 -0.8514  0.6348  0.9475
  346GLU     C852404   7.482   7.112   1.409 -0.5214 -1.1208  0.5791
  346GLU     O252405   7.416   6.998   1.350 -0.4536 -0.0888  0.0292
  346GLU     C952406   7.300   6.946   1.409 -0.5133 -0.0704 -0.9433
  346GLU    C1052407   7.323   6.932   1.559 -0.0164 -0.8642  0.4198
  346GLU    C1152408   7.370   7.054   1.623 -0.9258 -0.3911 -0.3793
  346GLU     O352409   7.485   7.108   1.553 -0.3599 -0.3861 -0.0512
  346GLU     O452410   0.267   7.392   1.220 -0.0473  0.2569 -0.7382
  346GLU     H152411   0.355   7.364   1.035 -0.7373 -3.7111  3.5395
  346GLU     H252412   0.436   7.585   0.994  2.2294  0.9434  1.7471
  346GLU     H352413   0.421   7.627   1.167  0.5726  3.1603 -3.3475
  346GLU     H452414   0.229   7.610   0.937 -2.8571 -1.4284  0.2538
  346GLU     H552415   0.096   7.478   1.303 -0.0364  0.6838 -1.8213
  346GLU     H652416   0.098   7.223   1.244  1.4189 -0.1232 -2.6316
  346GLU     H752417   0.002   7.274   1.113  1.3582 -1.6701  0.6339
  346GLU     H852418   7.592   7.356   1.265 -0.2433  0.0379  2.2929
  346GLU     H952419   7.701   7.353   1.395  0.8695  3.7400 -3.2646
  346GLU    H1052420   7.699   7.094   1.412 -3.5307 -1.1075  2.4466
  346GLU    H1152421   7.645   7.098   1.244  0.6180  3.6215 -0.3986
  346GLU    H1252422   7.418   7.201   1.403  1.5127  0.5653  2.4609
  346GLU    H1352423   7.213   7.012   1.400 -0.8273 -0.5771 -1.8594
  346GLU    H1452424   7.395   6.853   1.584 -0.4627 -0.5933  2.8154
  346GLU    H1552425   7.234   6.891   1.609  0.1113  0.9086  2.2351
  346GLU    H1652426   7.304   7.139   1.605 -0.0701  0.6079  1.0307
  347GLU     C152427   0.238   4.892   1.741 -0.9780  0.2170 -0.4525
  347GLU     C252428   0.166   4.977   1.850  0.7934  0.6017  0.0823
  347GLU     C352429   0.164   5.133   1.815  0.0561 -1.0102 -0.1551
  347GLU     O152430   0.119   5.141   1.682  0.2193  0.7483  0.1132
  347GLU     C452431   0.163   5.064   1.567  0.8722 -0.3025 -0.9391
  347GLU     C552432   0.285   5.117   1.500 -0.7472  0.9273  2.0489
  347GLU     C652433   0.252   5.192   1.371  0.2604  0.0437  1.0334
  347GLU     C752434   0.370   5.274   1.316  0.3875 -0.0647  0.3199
  347GLU     C852435   0.333   5.336   1.181  0.3592  0.4542 -0.5217
  347GLU     O252436   0.449   5.419   1.132  1.0927  0.4671  0.3562
  347GLU     C952437   0.540   5.372   1.033  0.1725 -0.1573 -0.8600
  347GLU    C1052438   0.463   5.296   0.921  0.2360 -0.9827  0.3507
  347GLU    C1152439   0.316   5.248   0.950  0.0471  0.4759  0.2436
  347GLU     O352440   0.316   5.222   1.093 -0.5224 -0.5181  0.0954
  347GLU     O452441   0.182   4.931   1.616  0.1844 -0.3667 -0.8727
  347GLU     H152442   0.343   4.917   1.724 -0.4318 -2.4960 -1.5192
  347GLU     H252443   0.222   4.969   1.945  1.0326  1.1684 -0.0107
  347GLU     H352444   0.068   4.935   1.875 -0.9447  3.5406 -1.3146
  347GLU     H452445   0.267   5.171   1.822 -0.7668  1.0800  2.3158
  347GLU     H552446   0.078   5.062   1.498  0.2554  0.1279 -0.2134
  347GLU     H652447   0.353   5.035   1.475  0.0323  1.6151  1.8698
  347GLU     H752448   0.332   5.182   1.575 -0.5503 -0.0924  2.8428
  347GLU     H852449   0.155   5.243   1.366  1.6586  2.6832 -2.4586
  347GLU     H952450   0.236   5.107   1.303 -0.3635 -0.8720  2.2668
  347GLU    H1052451   0.463   5.217   1.308 -2.3498 -5.0595  0.0454
  347GLU    H1152452   0.377   5.352   1.392 -1.7445  1.4005 -0.8578
  347GLU    H1252453   0.237   5.389   1.183 -1.1578 -2.0919 -0.8978
  347GLU    H1352454   0.588   5.303   1.103 -3.7430  0.8844  3.3455
  347GLU    H1452455   0.513   5.208   0.879 -3.2672 -2.8832 -0.2293
  347GLU    H1552456   0.453   5.373   0.844  1.8312  0.4968  1.5469
  347GLU    H1652457   0.243   5.326   0.927  0.4410  1.6348  2.5711
  348GLU     C152458   4.282   1.091   2.894 -0.1769 -1.0505 -0.3851
  348GLU     C252459   4.194   1.163   2.792 -1.1071 -0.1408 -0.2919
  348GLU     C352460   4.065   1.201   2.853  0.6278  0.1755 -0.5751
  348GLU     O152461   4.094   1.302   2.955  0.3488 -0.1558 -0.2456
  348GLU     C452462   4.223   1.294   3.024 -0.7352  0.6152  1.6442
  348GLU     C552463   4.245   1.369   3.156  0.6054 -0.7572  0.1288
  348GLU     C652464   4.386   1.445   3.162  0.6476 -0.6256 -0.1548
  348GLU     C752465   4.377   1.578   3.245  0.5217 -0.3665 -0.4948
  348GLU     C852466   4.447   1.691   3.182 -1.6446 -0.1731 -0.0967
  348GLU     O252467   4.367   1.806   3.213  0.6081 -0.1696  0.6605
  348GLU     C952468   4.420   1.948   3.197  0.4180  0.2013 -0.1209
  348GLU    C1052469   4.565   1.940   3.239  0.2763 -0.2435  0.0332
  348GLU    C1152470   4.636   1.829   3.159 -0.0487 -0.2975 -0.2370
  348GLU     O352471   4.583   1.715   3.229 -0.0883  0.0444 -0.8555
  348GLU     O452472   4.249   1.151   3.030  0.5332  0.1575  0.4962
  348GLU     H152473   4.382   1.125   2.866 -1.1868  1.6697 -0.9538
  348GLU     H252474   4.189   1.115   2.693  4.4568  0.7302 -1.3158
  348GLU     H352475   4.224   1.266   2.770 -3.1851  0.7653  0.7727
  348GLU     H452476   4.039   1.114   2.915 -0.7264 -0.8447 -2.4676
  348GLU     H552477   4.290   1.328   2.944 -2.3594 -0.0377 -0.0320
  348GLU     H652478   4.234   1.317   3.252  0.7874 -0.2639  0.4170
  348GLU     H752479   4.176   1.453   3.169 -3.5196 -3.0512 -3.8241
  348GLU     H852480   4.421   1.462   3.059  1.7802  1.8432  0.5591
  348GLU     H952481   4.472   1.385   3.195  1.6095 -0.1036 -1.6071
  348GLU    H1052482   4.421   1.559   3.344  3.5956 -1.0956 -1.8853
  348GLU    H1152483   4.276   1.617   3.261 -0.9961 -2.4377 -3.9458
  348GLU    H1252484   4.446   1.674   3.074  2.6916 -3.8542  0.1248
  348GLU    H1352485   4.385   2.025   3.267  7.2595  3.2596  0.7142
  348GLU    H1452486   4.577   1.900   3.340 -0.2764 -0.3121  0.0778
  348GLU    H1552487   4.598   2.045   3.236  0.3471 -0.2667  0.0259
  348GLU    H1652488   4.604   1.814   3.055  1.2370  0.6479 -0.7895
  349GLU     C152489   5.841   1.878   2.526  1.7341 -0.6031 -0.9308
  349GLU     C252490   5.694   1.860   2.581  0.1733 -1.2060 -0.2518
  349GLU     C352491   5.601   1.880   2.468 -0.1976  0.7145  0.2125
  349GLU     O152492   5.620   1.782   2.365  0.0648  0.6441 -0.5734
  349GLU     C452493   5.758   1.729   2.346  0.3890  0.7540  0.9918
  349GLU     C552494   5.789   1.751   2.191 -0.2680  0.5532 -0.2244
  349GLU     C652495   5.816   1.620   2.099  0.3538 -0.2680  0.3050
  349GLU     C752496   5.813   1.647   1.945  0.6745  0.2482 -1.0186
  349GLU     C852497   5.853   1.542   1.843  0.0595 -1.0806  1.1950
  349GLU     O252498   5.835   1.622   1.712 -0.3794 -0.6271 -0.0318
  349GLU     C952499   5.903   1.563   1.589 -0.1014  0.1800 -0.7420
  349GLU    C1052500   6.038   1.506   1.624  0.2979  0.1532 -0.2234
  349GLU    C1152501   6.037   1.413   1.753  0.4657  0.0262  0.4731
  349GLU     O352502   5.981   1.484   1.868  0.4528 -0.0612  0.6373
  349GLU     O452503   5.865   1.797   2.411 -0.2907  0.3159 -0.1557
  349GLU     H152504   5.897   1.844   2.614  0.7150 -1.9984 -0.7739
  349GLU     H252505   5.666   1.942   2.648 -2.0393  0.4485 -2.9989
  349GLU     H352506   5.683   1.756   2.613 -3.2266 -1.4832 -1.8352
  349GLU     H452507   5.604   1.970   2.406 -2.7599  0.0286 -1.0449
  349GLU     H552508   5.761   1.626   2.382  4.1481  0.6685  0.7456
  349GLU     H652509   5.892   1.788   2.183  0.4072 -1.4967 -1.6101
  349GLU     H752510   5.713   1.817   2.148 -1.7492  0.4195  2.0203
  349GLU     H852511   5.741   1.543   2.120  1.4132 -1.5554 -0.5013
  349GLU     H952512   5.911   1.583   2.139 -0.6692 -0.0248  3.1968
  349GLU    H1052513   5.889   1.725   1.930  2.1233 -1.3087 -2.1457
  349GLU    H1152514   5.714   1.683   1.915 -2.2642 -2.4025  4.0384
  349GLU    H1252515   5.780   1.461   1.833 -3.5821  1.8961  1.3880
  349GLU    H1352516   5.849   1.478   1.548  2.0739 -0.3990 -2.6104
  349GLU    H1452517   6.120   1.578   1.617  0.9189 -0.5822 -0.8068
  349GLU    H1552518   6.064   1.433   1.545  0.2612  1.4324 -1.4536
  349GLU    H1652519   5.955   1.341   1.741  0.9088 -0.8038  2.1320
  350GLU     C152520   4.747   1.734   7.286  0.1209 -1.1572 -1.2190
  350GLU     C252521   4.749   1.682   7.438  0.8790  0.6651  0.6283
  350GLU     C352522   4.670   1.754   7.527  0.8087 -1.2286 -0.3237
  350GLU     O152523   4.534   1.769   7.478  1.0863 -0.1633  0.4043
  350GLU     C452524   4.518   1.824   7.340  0.1176 -0.7434  0.4076
  350GLU     C552525   4.425   1.958   7.344  0.4633  1.9455 -0.1489
  350GLU     C652526   4.385   2.040   7.208  0.1551  0.4942 -0.1356
  350GLU     C752527   4.286   2.155   7.235 -0.0018  0.1833  1.7357
  350GLU     C852528   4.202   2.234   7.127  0.8236  0.7711  0.1737
  350GLU     O252529   4.164   2.130   7.034 -0.3545  0.5379 -0.3844
  350GLU     C952530   4.073   2.150   6.935 -0.3998 -1.5087 -0.0099
  350GLU    C1052531   3.944   2.190   7.008 -0.3903 -1.1840 -0.4877
  350GLU    C1152532   3.957   2.313   7.100 -0.0684  0.1802 -0.3111
  350GLU     O352533   4.079   2.301   7.181 -0.1237 -0.2863 -0.0014
  350GLU     O452534   4.649   1.849   7.277 -0.5596 -0.9697 -0.2088
  350GLU     H152535   4.694   1.650   7.240  3.1112 -1.5836 -4.3252
  350GLU     H252536   4.852   1.692   7.474  0.7587  2.4265  0.5723
  350GLU     H352537   4.711   1.579   7.444 -1.0871  1.2259 -1.0105
  350GLU     H452538   4.719   1.853   7.523 -1.4849 -0.0237 -0.1507
  350GLU     H552539   4.443   1.756   7.300 -1.8372  1.4809  0.0992
  350GLU     H652540   4.474   2.026   7.415  2.0421 -1.7379  2.6270
  350GLU     H752541   4.338   1.930   7.404 -2.2469  0.5800 -4.2810
  350GLU     H852542   4.328   1.966   7.151  2.9362 -2.8021  1.0573
  350GLU     H952543   4.471   2.075   7.149  0.8318 -1.4130 -0.3326
  350GLU    H1052544   4.346   2.240   7.270  0.0838  0.8153  0.1290
  350GLU    H1152545   4.225   2.139   7.325  0.9483 -2.0700  2.0431
  350GLU    H1252546   4.265   2.316   7.089 -0.1303  2.2645  1.6639
  350GLU    H1352547   4.053   2.064   6.868  0.5275 -0.2029 -2.0600
  350GLU    H1452548   3.907   2.107   7.069 -1.8258  0.2069  0.6172
  350GLU    H1552549   3.864   2.203   6.934  0.7417 -1.1578 -1.7377
  350GLU    H1652550   3.980   2.398   7.033 -1.8959 -0.0854 -1.3487
  351GLU     C152551   4.849   1.500   6.898  0.0245  0.1888 -0.5157
  351GLU     C252552   4.982   1.575   6.890  1.0180 -1.1581  0.7818
  351GLU     C352553   4.968   1.725   6.851  0.7307  0.5558 -0.6116
  351GLU     O152554   4.847   1.736   6.768  0.2439  0.0210  1.1550
  351GLU     C452555   4.712   1.705   6.832 -0.2144  0.9673  0.0386
  351GLU     C552556   4.588   1.683   6.735  0.8706 -0.1630 -0.6095
  351GLU     C652557   4.474   1.790   6.751 -0.1490  0.3294  0.5945
  351GLU     C752558   4.363   1.737   6.658 -0.0106 -0.7588 -0.4690
  351GLU     C852559   4.236   1.826   6.640 -0.2442 -0.4944  0.1629
  351GLU     O252560   4.187   1.819   6.500  0.1919 -0.1482  0.1043
  351GLU     C952561   4.087   1.927   6.462  0.5141 -0.4019  0.5997
  351GLU    C1052562   3.988   1.912   6.585  0.2850 -0.0040 -0.2136
  351GLU    C1152563   3.991   1.768   6.657 -1.7355 -0.9548 -0.2790
  351GLU     O352564   4.124   1.764   6.723 -0.9989 -0.6146 -0.0773
  351GLU     O452565   4.736   1.591   6.918  0.1401 -0.0387  0.0077
  351GLU     H152566   4.847   1.468   6.793  3.3550 -2.5502  0.0763
  351GLU     H252567   5.062   1.527   6.833  2.2912  2.3358 -0.6813
  351GLU     H352568   5.021   1.583   6.992 -0.9568 -0.3864  1.5355
  351GLU     H452569   4.967   1.785   6.943  0.7215  0.2621 -0.4197
  351GLU     H552570   4.695   1.792   6.896 -1.9583  0.8330 -0.1946
  351GLU     H652571   4.549   1.581   6.737  0.7574 -0.1101  0.3938
  351GLU     H752572   4.634   1.718   6.641 -0.1435  0.0491 -1.0377
  351GLU     H852573   4.514   1.884   6.710 -1.3845  0.7177  0.2336
  351GLU     H952574   4.443   1.801   6.855  0.1209 -2.5626  1.0560
  351GLU    H1052575   4.339   1.631   6.672  3.8966 -2.2223 -3.2226
  351GLU    H1152576   4.423   1.733   6.567  3.7748 -2.6716  1.8528
  351GLU    H1252577   4.254   1.929   6.673 -1.4108 -0.6396  1.2991
  351GLU    H1352578   4.119   2.031   6.453 -3.3879  0.7591 -3.4186
  351GLU    H1452579   3.886   1.917   6.544 -0.3353 -1.2019  1.0888
  351GLU    H1552580   4.004   1.994   6.655 -0.2439  1.6117 -1.9190
  351GLU    H1652581   3.981   1.695   6.576  1.2095  0.3453 -2.0010
  352GLU     C152582   1.069   4.237   5.988 -0.0250  0.1013  0.2987
  352GLU     C252583   1.180   4.309   5.898 -0.0616  0.2257 -0.2752
  352GLU     C352584   1.144   4.458   5.854  0.4503  0.6953  0.8982
  352GLU     O152585   1.020   4.486   5.923  0.2147 -0.5607 -0.1599
  352GLU     C452586   0.906   4.402   5.905 -0.3713  0.2346  0.0759
  352GLU     C552587   0.809   4.435   5.793 -0.4794  0.4612 -0.6522
  352GLU     C652588   0.771   4.581   5.758 -0.2175 -0.1792  0.1963
  352GLU     C752589   0.618   4.621   5.730  0.6246 -0.8322  0.4334
  352GLU     C852590   0.561   4.510   5.632  0.3131  0.3575  0.9539
  352GLU     O252591   0.424   4.540   5.613  0.9220 -0.1913 -0.0682
  352GLU     C952592   0.381   4.574   5.481 -0.4836 -1.1403 -1.0806
  352GLU    C1052593   0.435   4.469   5.383 -0.5466 -1.1037 -0.6199
  352GLU    C1152594   0.578   4.416   5.418 -0.4406  0.4212  0.7138
  352GLU     O352595   0.634   4.511   5.517 -0.7339 -0.1652  0.6731
  352GLU     O452596   0.944   4.258   5.911 -0.3044 -0.2509  0.5001
  352GLU     H152597   1.076   4.274   6.091 -0.4107 -5.3469  2.6561
  352GLU     H252598   1.215   4.242   5.819  1.8466 -2.5964  2.6696
  352GLU     H352599   1.274   4.316   5.956  0.2452  2.8300 -0.9644
  352GLU     H452600   1.220   4.521   5.901  1.6401  0.3242 -0.4543
  352GLU     H552601   0.846   4.408   5.997 -0.4062  2.4060 -0.0266
  352GLU     H652602   0.720   4.372   5.805 -0.6790  1.1271  2.2163
  352GLU     H752603   0.832   4.401   5.692 -4.1910  0.5040 -1.6748
  352GLU     H852604   0.820   4.627   5.671 -2.8568  3.6468  0.4980
  352GLU     H952605   0.797   4.626   5.855  0.9662  0.4551 -0.3894
  352GLU    H1052606   0.626   4.718   5.679 -0.9424 -0.1577  1.4220
  352GLU    H1152607   0.572   4.631   5.829  1.0617 -2.1507  0.7896
  352GLU    H1252608   0.563   4.404   5.663 -1.4822  0.2947  0.9825
  352GLU    H1352609   0.429   4.668   5.453 -0.2948 -1.2810 -1.2342
  352GLU    H1452610   0.432   4.508   5.281 -0.6852 -0.5706 -0.4175
  352GLU    H1552611   0.365   4.385   5.378 -0.4296 -1.1259 -3.7649
  352GLU    H1652612   0.570   4.316   5.463  1.4718 -0.0203  0.1607
  353GLU     C152613   7.646   0.272   1.726  0.2804  0.0619 -0.5126
  353GLU     C252614   7.607   0.155   1.827 -0.1694  0.7060  1.4778
  353GLU     C352615   7.693   0.158   1.953 -0.9964 -0.0999 -0.9857
  353GLU     O152616   0.070   0.177   1.897  0.3389 -0.0771  0.5345
  353GLU     C452617   0.119   0.229   1.765  0.2302  0.8584 -1.0192
  353GLU     C552618   0.244   0.162   1.713 -0.6661  1.8249  0.2577
  353GLU     C652619   0.375   0.172   1.799  1.0308  0.7665  1.0276
  353GLU     C752620   0.529   0.141   1.753  0.3346  0.3364 -0.8371
  353GLU     C852621   0.602   0.254   1.689 -0.3115  0.6404 -0.3163
  353GLU     O252622   0.752   0.242   1.685  0.0892  0.9487  1.3414
  353GLU     C952623   0.835   0.297   1.564  0.5458  0.2807 -0.6162
  353GLU    C1052624   0.728   0.347   1.457 -0.8202 -0.3206 -0.3760
  353GLU    C1152625   0.598   0.264   1.448  0.5961 -0.3243  0.3726
  353GLU     O352626   0.529   0.272   1.565 -0.6651 -0.1596  0.1690
  353GLU     O452627   0.010   0.229   1.672  0.3967 -0.2845  1.2234
  353GLU     H152628   7.664   0.373   1.763  0.6636 -0.4664  0.8025
  353GLU     H252629   7.636   0.064   1.772  1.0780 -0.0319  3.2300
  353GLU     H352630   7.503   0.126   1.843 -1.1357  2.2409 -1.4013
  353GLU     H452631   7.698   0.061   2.006 -3.2945  0.2518 -0.0270
  353GLU     H552632   0.151   0.329   1.795  0.0572  0.5508  0.2621
  353GLU     H652633   0.244   0.192   1.607 -3.8952  3.0419  0.4968
  353GLU     H752634   0.225   0.054   1.713  4.8715  0.5523  0.5816
  353GLU     H852635   0.361   0.091   1.872 -2.0689  0.4789  0.2505
  353GLU     H952636   0.381   0.273   1.839 -0.2272  0.5349  1.8335
  353GLU    H1052637   0.552   0.053   1.691  4.0008  1.4582 -1.2913
  353GLU    H1152638   0.572   0.101   1.845 -0.9766  0.4027 -0.1739
  353GLU    H1252639   0.575   0.336   1.757 -3.2466 -1.9300  1.9403
  353GLU    H1352640   0.888   0.214   1.516  0.7216 -0.0492  0.1382
  353GLU    H1452641   0.774   0.352   1.357  1.2986  0.6818  0.5718
  353GLU    H1552642   0.699   0.447   1.492 -2.0562 -1.1335  1.0658
  353GLU    H1652643   0.644   0.166   1.432  2.0759  0.6535 -2.1597
  354GLU     C152644   1.487   3.055   5.971 -0.1022  0.2302  0.9157
  354GLU     C252645   1.513   3.017   6.119  0.0879 -0.3130 -0.6991
  354GLU     C352646   1.654   3.045   6.171 -0.0529 -0.9282 -0.1331
  354GLU     O152647   1.727   3.143   6.090 -0.5884 -0.3187  0.6696
  354GLU     C452648   1.667   3.190   5.958  1.5021  0.3597  1.3088
  354GLU     C552649   1.778   3.268   5.869  0.5283 -0.1080  0.6972
  354GLU     C652650   1.735   3.327   5.729 -0.7424 -0.1778  0.1684
  354GLU     C752651   1.712   3.487   5.698  0.3255  0.5941  0.2809
  354GLU     C852652   1.691   3.556   5.560  1.1964  1.0121  0.0123
  354GLU     O252653   1.602   3.477   5.469 -0.5999 -0.1389 -0.7113
  354GLU     C952654   1.517   3.556   5.385  0.2186  0.3133  0.6373
  354GLU    C1052655   1.604   3.673   5.332 -0.3548 -0.2357  0.7427
  354GLU    C1152656   1.613   3.779   5.445 -0.5452  1.0366 -0.1244
  354GLU     O352657   1.651   3.695   5.564  0.0024  0.1717  0.4435
  354GLU     O452658   1.617   3.062   5.907 -0.7832 -0.2951 -0.3207
  354GLU     H152659   1.438   3.149   5.943  2.2939  1.5288  0.7906
  354GLU     H252660   1.488   2.914   6.149 -2.0869  1.4875  4.7682
  354GLU     H352661   1.440   3.071   6.180 -0.4702 -3.1795  1.3522
  354GLU     H452662   1.709   2.953   6.149  2.0220  0.4635 -1.0794
  354GLU     H552663   1.584   3.262   5.964  3.1187  2.4185  0.3379
  354GLU     H652664   1.856   3.194   5.843 -0.7784 -1.9734  1.8530
  354GLU     H752665   1.820   3.351   5.927  1.0481  1.3098 -1.5510
  354GLU     H852666   1.646   3.282   5.683 -1.7294  3.0086 -1.3586
  354GLU     H952667   1.827   3.301   5.674  0.6889  0.6494  2.0548
  354GLU    H1052668   1.810   3.533   5.717 -0.0361  1.3990  0.2666
  354GLU    H1152669   1.627   3.532   5.751 -1.1850 -0.6283 -1.0394
  354GLU    H1252670   1.789   3.546   5.512  0.0339  2.0594 -2.7897
  354GLU    H1352671   1.447   3.604   5.454  0.3098  1.7986 -0.2615
  354GLU    H1452672   1.574   3.713   5.235  0.4653 -1.2381  0.0460
  354GLU    H1552673   1.704   3.639   5.303 -0.2059 -0.1885  1.1968
  354GLU    H1652674   1.505   3.794   5.459 -1.1480  1.3278 -4.1258
  355GLU     C152675   0.417   0.527   6.712  0.3501  1.0536 -0.7659
  355GLU     C252676   0.468   0.423   6.822 -0.8740  0.1517  0.4649
  355GLU     C352677   0.569   0.315   6.772 -0.7135  0.5229 -0.7198
  355GLU     O152678   0.673   0.386   6.708  0.5836 -0.6058 -0.0341
  355GLU     C452679   0.648   0.531   6.669 -0.9440  0.6202 -0.4729
  355GLU     C552680   0.761   0.564   6.569 -0.1055 -1.7658  1.2639
  355GLU     C652681   0.726   0.682   6.462  0.0977 -1.5053  0.2953
  355GLU     C752682   0.800   0.662   6.328  0.2308 -0.2733 -0.3919
  355GLU     C852683   0.933   0.733   6.325 -0.0022 -0.6226 -0.2120
  355GLU     O252684   0.907   0.874   6.327  0.0708  0.0334 -0.2987
  355GLU     C952685   0.983   0.965   6.427  0.0370 -0.3037 -1.1229
  355GLU    C1052686   1.134   0.926   6.435 -0.5865  0.1696 -0.4774
  355GLU    C1152687   1.158   0.778   6.447 -1.0649  0.5326 -0.6578
  355GLU     O352688   1.033   0.704   6.418  0.2024 -0.6011  0.2572
  355GLU     O452689   0.516   0.546   6.610 -0.0022  0.5280  0.1775
  355GLU     H152690   0.325   0.483   6.671 -0.3881  0.5837  1.2900
  355GLU     H252691   0.387   0.389   6.889  0.7442 -1.7791  1.5526
  355GLU     H352692   0.524   0.486   6.891 -0.4385  0.5029 -0.2061
  355GLU     H452693   0.515   0.243   6.709  0.9276 -0.5867 -0.9020
  355GLU     H552694   0.667   0.597   6.755  1.1899  4.6371 -3.7149
  355GLU     H652695   0.769   0.467   6.519 -0.6446 -0.6334 -1.1487
  355GLU     H752696   0.861   0.600   6.597 -0.6405  1.4035 -0.3852
  355GLU     H852697   0.741   0.781   6.507  0.5671 -1.4833  0.0942
  355GLU     H952698   0.620   0.697   6.440  1.2416  3.3186 -3.5165
  355GLU    H1052699   0.736   0.692   6.244 -1.3876  0.6331  1.0931
  355GLU    H1152700   0.822   0.556   6.308  2.3751  0.6581 -3.5727
  355GLU    H1252701   0.967   0.719   6.221  1.3252 -0.2379  0.1496
  355GLU    H1352702   0.930   0.953   6.522  0.0967  1.3209 -0.8615
  355GLU    H1452703   1.181   0.982   6.517  1.3737 -0.2964 -1.2320
  355GLU    H1552704   1.185   0.973   6.350 -1.5827  0.8759 -0.6994
  355GLU    H1652705   1.203   0.767   6.546  1.4582  0.4447 -1.7407
  356GLU     C152706   4.844   4.544   1.347 -0.8265 -0.0183  0.3527
  356GLU     C252707   4.896   4.399   1.321  0.5048 -0.3879 -0.3691
  356GLU     C352708   4.986   4.392   1.198  0.1560  0.2566 -0.1947
  356GLU     O152709   4.910   4.467   1.093 -0.1749  0.9789 -0.0776
  356GLU     C452710   4.858   4.597   1.113 -0.0591  0.1670 -0.9730
  356GLU     C552711   4.757   4.612   0.992  0.0438 -0.4330 -0.9155
  356GLU     C652712   4.817   4.701   0.873  0.9573 -0.2063  1.1084
  356GLU     C752713   4.947   4.658   0.811  0.5549  0.6542  0.9257
  356GLU     C852714   4.982   4.709   0.677 -0.2790  0.5889 -1.0991
  356GLU     O252715   4.959   4.852   0.675 -0.6402 -0.6057  0.1061
  356GLU     C952716   5.036   4.935   0.587 -0.3379  0.2322  0.0337
  356GLU    C1052717   5.108   4.846   0.470  0.2469  0.5129 -0.7039
  356GLU    C1152718   5.191   4.747   0.548 -0.2202 -1.2060  0.1010
  356GLU     O352719   5.119   4.679   0.656 -0.0014 -0.4942  0.5878
  356GLU     O452720   4.776   4.588   1.230 -0.3229 -0.1343 -1.5228
  356GLU     H152721   4.928   4.609   1.374  1.0567 -3.5106  3.7344
  356GLU     H252722   4.810   4.334   1.301 -0.6395  0.7708  0.6269
  356GLU     H352723   4.931   4.361   1.418  0.1392  0.7647  0.2267
  356GLU     H452724   5.090   4.425   1.210  0.2178 -0.6835  2.4036
  356GLU     H552725   4.931   4.677   1.133 -2.0757  0.9741  5.2743
  356GLU     H652726   4.659   4.647   1.028 -0.9114 -1.9296 -1.9305
  356GLU     H752727   4.733   4.511   0.955  1.6190 -2.6507  3.3898
  356GLU     H852728   4.820   4.806   0.904  0.9789  0.6755 -1.6061
  356GLU     H952729   4.748   4.694   0.788  1.2907 -4.3458  0.9811
  356GLU    H1052730   4.949   4.549   0.825  0.9230  0.6134  0.5756
  356GLU    H1152731   5.011   4.707   0.885 -1.1581  3.4463  0.7112
  356GLU    H1252732   4.912   4.661   0.608  2.2453 -3.7828 -0.9644
  356GLU    H1352733   5.116   4.968   0.654  0.0486  0.5870 -0.5947
  356GLU    H1452734   5.154   4.919   0.403  0.0916  0.9254 -0.3653
  356GLU    H1552735   5.026   4.790   0.423 -2.9372  0.5626  4.0852
  356GLU    H1652736   5.231   4.674   0.476  1.0059 -0.5618  0.1122
  357GLU     C152737   5.393   2.919   5.545  0.6382  1.4342  0.1498
  357GLU     C252738   5.325   3.021   5.642 -0.6829 -0.1156 -0.0217
  357GLU     C352739   5.288   3.155   5.570  0.3153 -0.4309  0.5857
  357GLU     O152740   5.302   3.152   5.422 -0.3330 -0.5243  0.0392
  357GLU     C452741   5.436   3.101   5.376  0.1701  0.6133 -0.2745
  357GLU     C552742   5.546   3.211   5.374  1.9212 -0.4881 -0.6878
  357GLU     C652743   5.512   3.320   5.260 -0.3656 -0.4404 -1.2444
  357GLU     C752744   5.454   3.439   5.344  0.5600  0.2343 -0.0024
  357GLU     C852745   5.386   3.547   5.269  0.8856  0.3126 -0.1892
  357GLU     O252746   5.495   3.602   5.180  0.5598  0.3124 -0.8449
  357GLU     C952747   5.442   3.677   5.076 -1.5191 -0.1200  0.1492
  357GLU    C1052748   5.356   3.590   4.985 -0.1070  1.4832 -0.0283
  357GLU    C1152749   5.231   3.565   5.074  0.4975  0.1660 -0.5499
  357GLU     O352750   5.276   3.478   5.191  0.3288 -0.4134  0.4655
  357GLU     O452751   5.486   2.990   5.463  0.0014 -0.2781 -0.4437
  357GLU     H152752   5.320   2.884   5.470  2.0597  2.7895 -1.9735
  357GLU     H252753   5.399   3.038   5.721 -3.5385 -0.8353  3.0498
  357GLU     H352754   5.239   2.959   5.671  0.8980 -1.6945  1.4923
  357GLU     H452755   5.356   3.225   5.620  1.4602 -3.2515  3.3281
  357GLU     H552756   5.416   3.047   5.283 -0.7367  3.2089 -1.6847
  357GLU     H652757   5.631   3.150   5.339  1.0445 -2.5458  0.6181
  357GLU     H752758   5.574   3.263   5.466 -2.0515  1.5512 -0.4100
  357GLU     H852759   5.441   3.280   5.187 -2.9227 -2.1086  1.9367
  357GLU     H952760   5.611   3.345   5.217  0.7441  1.0950  1.8994
  357GLU    H1052761   5.528   3.461   5.422  2.6880 -2.1162 -1.2503
  357GLU    H1152762   5.371   3.400   5.405 -1.3908  1.8323 -1.4742
  357GLU    H1252763   5.349   3.626   5.334 -2.4015  0.1064 -1.6465
  357GLU    H1352764   5.383   3.758   5.119 -0.5165 -0.3515  2.0603
  357GLU    H1452765   5.410   3.497   4.965 -0.6187  0.9110  1.1280
  357GLU    H1552766   5.336   3.639   4.889  0.0687 -0.4414 -1.0936
  357GLU    H1652767   5.179   3.654   5.112 -0.6304  0.7588 -3.2543
  358GLU     C152768   1.877   6.367   7.447 -1.2202  0.5446  0.0379
  358GLU     C252769   1.746   6.304   7.380  0.5594 -0.3084  0.5815
  358GLU     C352770   1.710   6.163   7.424 -0.9803  1.3359  0.3068
  358GLU     O152771   1.829   6.098   7.402 -0.5178  0.3079 -0.0998
  358GLU     C452772   1.960   6.142   7.463 -0.6380 -0.1666  0.3005
  358GLU     C552773   2.069   6.050   7.397 -0.6715  0.8057 -0.1436
  358GLU     C652774   2.198   6.052   7.476  0.7991 -0.3147  0.7010
  358GLU     C752775   2.319   5.996   7.405  0.6669 -0.3339 -0.3627
  358GLU     C852776   2.376   6.059   7.278 -0.7139  0.1471 -0.2130
  358GLU     O252777   2.493   6.129   7.312  0.2217  0.4735 -0.5283
  358GLU     C952778   2.605   6.140   7.225 -0.1555  0.4384 -0.5012
  358GLU    C1052779   2.651   5.989   7.215  1.0333 -0.6429  0.2308
  358GLU    C1152780   2.541   5.883   7.215 -0.2940  0.1801  0.5530
  358GLU     O352781   2.421   5.954   7.196 -0.1881  0.5092  0.1170
  358GLU     O452782   1.984   6.275   7.422  0.5302  0.9556  0.0192
  358GLU     H152783   1.861   6.374   7.556 -2.0876 -2.1564  0.1734
  358GLU     H252784   1.774   6.289   7.275 -0.8387 -1.3402  0.3291
  358GLU     H352785   1.661   6.373   7.388 -1.4219 -2.3038 -1.6240
  358GLU     H452786   1.682   6.145   7.528  0.7694 -1.4589  0.3919
  358GLU     H552787   1.954   6.130   7.571 -5.3249  1.3745  0.4541
  358GLU     H652788   2.063   6.068   7.289  3.3569  1.6235 -0.4113
  358GLU     H752789   2.032   5.948   7.411  2.1604 -0.0842  1.8870
  358GLU     H852790   2.177   5.975   7.550 -2.4089 -1.0351 -0.7580
  358GLU     H952791   2.220   6.143   7.533 -1.1017 -1.9178  4.2864
  358GLU    H1052792   2.291   5.891   7.386  4.1352 -1.9902  2.3895
  358GLU    H1152793   2.393   5.994   7.486  0.4665 -0.2085 -0.1754
  358GLU    H1252794   2.305   6.123   7.223 -0.6918  0.7602  0.4588
  358GLU    H1352795   2.682   6.186   7.288 -3.7130  1.9872  3.1969
  358GLU    H1452796   2.711   5.954   7.300 -0.9804 -1.6115  1.3066
  358GLU    H1552797   2.702   5.974   7.119  8.3342  0.0251  3.3008
  358GLU    H1652798   2.535   5.834   7.313 -0.4446 -0.2441  0.3330
  359GLU     C152799   3.800   1.010   3.901  0.5994  0.0424  0.1855
  359GLU     C252800   3.736   1.108   3.996 -0.0792  0.8438  0.1678
  359GLU     C352801   3.668   1.232   3.922 -0.5954 -0.7994 -0.2042
  359GLU     O152802   3.645   1.203   3.782 -0.2690  0.0656  0.1952
  359GLU     C452803   3.606   1.061   3.750 -0.2308  0.3148  0.7267
  359GLU     C552804   3.583   1.044   3.590 -0.6966  0.4172 -0.9433
  359GLU     C652805   3.459   1.106   3.507 -0.0187  0.2245 -0.9333
  359GLU     C752806   3.443   1.036   3.357 -0.5131  0.2160 -0.0948
  359GLU     C852807   3.329   1.075   3.252  0.6633  0.8287 -0.0837
  359GLU     O252808   3.369   1.134   3.133  0.4281 -1.4574  0.9637
  359GLU     C952809   3.410   1.022   3.050  0.7987 -1.0728 -0.4188
  359GLU    C1052810   3.286   0.951   3.001 -0.2851  0.9066  0.5081
  359GLU    C1152811   3.169   0.939   3.095 -0.4694 -0.6332  0.1492
  359GLU     O352812   3.231   0.964   3.227 -0.5638 -0.6983 -1.2808
  359GLU     O452813   3.701   0.966   3.807 -1.1961  1.3103  1.2435
  359GLU     H152814   3.870   1.067   3.839 -0.8157  0.4394 -1.1092
  359GLU     H252815   3.811   1.129   4.073  2.5278 -2.4533 -1.2184
  359GLU     H352816   3.666   1.042   4.049  0.8008 -1.8470 -1.7711
  359GLU     H452817   3.569   1.230   3.969 -2.3792  0.7120 -3.5476
  359GLU     H552818   3.502   1.047   3.784  0.0599 -0.4027  1.3343
  359GLU     H652819   3.579   0.935   3.593 -0.6478  0.3832  3.1472
  359GLU     H752820   3.682   1.062   3.545  0.2405 -3.2075 -0.6022
  359GLU     H852821   3.476   1.212   3.485 -0.7142  0.6181  0.3179
  359GLU     H952822   3.378   1.118   3.580 -0.9694 -0.5028 -1.8195
  359GLU    H1052823   3.440   0.930   3.385 -0.5760 -0.0411 -1.0295
  359GLU    H1152824   3.539   1.043   3.305 -1.1310  1.4166 -1.1381
  359GLU    H1252825   3.274   1.142   3.320  1.8126 -1.4599  3.3578
  359GLU    H1352826   3.479   0.958   3.107 -0.4012 -2.6412 -0.6669
  359GLU    H1452827   3.311   0.853   2.957 -2.1236  0.8057 -0.3732
  359GLU    H1552828   3.262   1.016   2.916  2.4635  2.5216  0.8371
  359GLU    H1652829   3.126   1.034   3.062  1.9289  0.8907  1.0900
  360GLU     C152830   6.635   3.135   0.135  0.4419  0.0277  0.2618
  360GLU     C252831   6.481   3.156   0.160 -1.1523  0.8974  0.1298
  360GLU     C352832   6.441   3.304   0.176  1.2104  0.2623 -0.6422
  360GLU     O152833   6.538   3.340   0.280 -0.4224  0.3480  0.0930
  360GLU     C452834   6.678   3.341   0.260 -0.1399  0.2361 -0.7745
  360GLU     C552835   6.741   3.293   0.389  0.9031  0.1230  0.0137
  360GLU     C652836   6.728   3.385   0.512  0.0012 -0.4330 -0.6226
  360GLU     C752837   6.793   3.317   0.628  0.3728  1.0596 -1.4858
  360GLU     C852838   6.811   3.400   0.759  0.5800  0.2030 -0.3581
  360GLU     O252839   6.684   3.381   0.832  0.2827  0.0397 -0.3959
  360GLU     C952840   6.677   3.424   0.975 -0.3201 -0.5481 -0.5155
  360GLU    C1052841   6.818   3.368   1.036 -0.4476 -0.3550 -0.3721
  360GLU    C1152842   6.895   3.277   0.944  0.7678  1.8846 -0.3355
  360GLU     O352843   6.922   3.353   0.828 -0.3445 -0.0452  0.1571
  360GLU     O452844   6.712   3.248   0.153 -0.1160  0.0921 -0.5629
  360GLU     H152845   6.668   3.049   0.194  0.1501 -0.7357 -0.6625
  360GLU     H252846   6.450   3.105   0.252 -1.1815 -1.8104 -1.2642
  360GLU     H352847   6.433   3.113   0.071  2.2549 -2.6829 -0.2750
  360GLU     H452848   6.464   3.357   0.083 -1.3552 -2.5024 -3.0532
  360GLU     H552849   6.707   3.443   0.231  1.8106 -0.7215 -2.4090
  360GLU     H652850   6.843   3.280   0.351 -0.1288 -2.1275 -2.2901
  360GLU     H752851   6.706   3.192   0.412 -0.8159  0.7380  0.2456
  360GLU     H852852   6.622   3.406   0.526 -0.3716 -2.6393  0.3150
  360GLU     H952853   6.790   3.471   0.485 -1.0397  2.0182  3.8228
  360GLU    H1052854   6.891   3.275   0.600  0.5496 -0.0913  0.6142
  360GLU    H1152855   6.732   3.228   0.645  3.9159 -1.6942 -1.9230
  360GLU    H1252856   6.820   3.509   0.752  0.5458  0.1846 -0.7170
  360GLU    H1352857   6.594   3.365   1.015 -0.1693 -1.4988 -1.5726
  360GLU    H1452858   6.790   3.317   1.129 -1.0120 -2.3976 -1.5804
  360GLU    H1552859   6.892   3.436   1.080 -2.2558  0.3090  1.8378
  360GLU    H1652860   6.822   3.195   0.936  0.1659  1.9863  2.8260
  361GLU     C152861   5.787   7.252   0.102 -0.1721  0.5408 -0.1466
  361GLU     C252862   5.708   7.124   0.076  0.0470 -1.1933 -0.6268
  361GLU     C352863   5.692   7.103   8.024 -0.9012 -0.1582 -0.0603
  361GLU     O152864   5.597   7.209   7.990  1.6236 -0.5412  0.0237
  361GLU     C452865   5.647   7.340   8.004  0.5497 -1.6804  0.1375
  361GLU     C552866   5.528   7.451   7.994 -0.3721 -0.3646  0.7302
  361GLU     C652867   5.495   7.531   7.857  0.6185 -0.0932 -0.2141
  361GLU     C752868   5.343   7.569   7.839 -0.0925  0.6119 -0.8464
  361GLU     C852869   5.305   7.667   7.722 -0.3491  0.8393  0.5333
  361GLU     O252870   5.166   0.013   7.715 -0.0423 -0.9234  0.3157
  361GLU     C952871   5.112   0.141   7.654 -0.8031  1.0131 -0.2897
  361GLU    C1052872   5.211   0.247   7.677  0.3535 -0.0791  0.0342
  361GLU    C1152873   5.344   0.225   7.734  0.0787  0.2648  0.0490
  361GLU     O352874   5.395   0.092   7.725  0.2584  0.2340  0.2324
  361GLU     O452875   5.714   7.371   0.038  0.2510 -0.3828  0.9171
  361GLU     H152876   5.887   7.244   0.058  0.8211 -0.7237  2.1944
  361GLU     H252877   5.610   7.133   0.123  1.0847  0.7874  1.3677
  361GLU     H352878   5.779   7.048   0.111  1.3684 -1.3981 -3.4078
  361GLU     H452879   5.784   7.125   7.967 -0.2624  0.4371  1.1631
  361GLU     H552880   5.723   7.350   7.925  2.0439 -1.5297  1.5327
  361GLU     H652881   5.525   7.524   8.075  4.3343 -2.3090  2.9949
  361GLU     H752882   5.435   7.393   8.002 -4.5346  4.6583 -3.4280
  361GLU     H852883   5.532   7.458   7.784  0.5493 -0.1991 -0.1430
  361GLU     H952884   5.537   7.632   7.851  1.2373  0.1595  4.4938
  361GLU    H1052885   5.310   7.628   7.925  2.9610 -1.6852  2.2088
  361GLU    H1152886   5.284   7.479   7.861  0.9571  0.0997 -0.0548
  361GLU    H1252887   5.330   7.611   7.631 -1.7543 -0.8354  1.1139
  361GLU    H1352888   5.133   0.118   7.549 -1.0960  0.1331 -0.1665
  361GLU    H1452889   5.179   0.345   7.713  0.7914 -0.1933  0.7619
  361GLU    H1552890   5.242   0.271   7.575  1.7557  2.4580  0.9718
  361GLU    H1652891   5.425   0.277   7.681  0.4893 -0.7559 -0.3617
  362GLU     C152892   0.928   4.795   7.816 -0.9901  0.3871 -0.2061
  362GLU     C252893   0.863   4.686   7.902 -0.3116 -0.6107  0.6279
  362GLU     C352894   0.920   4.550   7.879 -0.3887  0.6793 -0.4665
  362GLU     O152895   0.889   4.522   7.738 -1.3895  0.3353 -0.8623
  362GLU     C452896   0.915   4.627   7.635 -0.1295 -0.1293  0.6708
  362GLU     C552897   0.825   4.610   7.512 -0.7471  0.8134 -0.3706
  362GLU     C652898   0.884   4.644   7.379 -1.1369  0.4816  0.3727
  362GLU     C752899   0.811   4.730   7.267 -1.2052  0.3398 -0.7490
  362GLU     C852900   0.883   4.752   7.118  0.4108  0.9909 -0.6648
  362GLU     O252901   0.796   4.689   7.013  0.2773  0.1722 -0.2185
  362GLU     C952902   0.706   4.765   6.936 -0.5111 -0.3748  0.7672
  362GLU    C1052903   0.785   4.887   6.883 -0.3894  0.0100 -0.0824
  362GLU    C1152904   0.832   4.978   6.996 -0.7680 -0.5159 -0.4629
  362GLU     O352905   0.906   4.902   7.101  0.2456  0.5912  1.0195
  362GLU     O452906   0.882   4.760   7.687  0.4704  0.1582 -0.9480
  362GLU     H152907   1.036   4.791   7.836 -1.0200  1.2388  0.2028
  362GLU     H252908   0.762   4.667   7.864 -0.2647  1.5816 -0.7774
  362GLU     H352909   0.850   4.719   8.006 -0.3246  2.7211 -0.3082
  362GLU     H452910   1.028   4.560   7.893 -0.7785  2.6130  1.7174
  362GLU     H552911   1.020   4.632   7.606  1.1582 -1.5681  4.4772
  362GLU     H652912   0.733   4.669   7.522  0.1632  2.4650 -1.3505
  362GLU     H752913   0.792   4.505   7.518 -4.9731  1.9736  0.7502
  362GLU     H852914   0.880   4.552   7.319  1.1369 -1.7777  3.3519
  362GLU     H952915   0.988   4.680   7.379 -0.0627 -2.3379  0.8251
  362GLU    H1052916   0.789   4.831   7.304 -2.4735  0.4496 -1.7276
  362GLU    H1152917   0.717   4.678   7.248  0.5330 -3.2321 -0.3611
  362GLU    H1252918   0.976   4.696   7.125  0.0904  0.0607 -3.1852
  362GLU    H1352919   0.674   4.715   6.843 -2.7320 -0.6702  1.6178
  362GLU    H1452920   0.701   4.932   6.828 -3.7862 -4.3533  0.9836
  362GLU    H1552921   0.867   4.867   6.814  0.8544  0.4713  1.2139
  362GLU    H1652922   0.750   5.028   7.049 -0.8279 -2.3912  1.3733
  363GLU     C152923   0.025   0.532   4.581 -0.2497 -0.0781  1.2735
  363GLU     C252924   0.139   0.427   4.608 -1.7166  0.2846 -0.0130
  363GLU     C352925   0.104   0.303   4.697  0.1325 -0.1790  0.3366
  363GLU     O152926   7.733   0.332   4.717  0.8476  0.1215 -0.0747
  363GLU     C452927   7.664   0.335   4.581  0.1726  0.9225 -1.0280
  363GLU     C552928   7.514   0.296   4.593 -0.8412 -1.0918 -0.7443
  363GLU     C652929   7.503   0.160   4.686 -0.4079 -0.4020  0.2572
  363GLU     C752930   7.602   0.044   4.645 -0.2113  0.6973 -0.0709
  363GLU     C852931   7.612   0.002   4.491 -1.3582  0.8993  0.4147
  363GLU     O252932   7.738   0.062   4.442  0.2515 -0.5713  0.3968
  363GLU     C952933   0.090   7.674   4.463  0.3076  0.6073  0.5317
  363GLU    C1052934   0.079   7.532   4.415  0.1389 -0.0972 -0.3210
  363GLU    C1152935   7.693   7.495   4.369  0.1348  0.0396 -0.2391
  363GLU     O352936   7.602   7.540   4.475  1.0018  0.1450 -0.6381
  363GLU     O452937   7.669   0.477   4.537 -0.2919  0.5679 -0.2907
  363GLU     H152938   0.022   0.588   4.676  3.3399 -0.7024  1.9159
  363GLU     H252939   0.234   0.462   4.651 -2.7723  0.3806  2.3405
  363GLU     H352940   0.155   0.383   4.508 -1.9974 -0.5242  0.2908
  363GLU     H452941   0.132   0.210   4.646 -1.9119  1.1415 -3.6028
  363GLU     H552942   7.733   0.285   4.512  0.8959  1.7536 -0.9286
  363GLU     H652943   7.483   0.275   4.490 -2.1702  0.3521 -0.6648
  363GLU     H752944   7.457   0.378   4.637 -1.1451 -2.7670  2.3122
  363GLU     H852945   7.404   0.112   4.693 -1.1852  1.2716  1.4651
  363GLU     H952946   7.517   0.178   4.794  0.4543  2.8014 -0.2879
  363GLU    H1052947   7.560   7.641   4.695  1.3711  1.0341  1.9376
  363GLU    H1152948   7.695   0.068   4.698 -0.7955  1.0408  0.8206
  363GLU    H1252949   7.528   0.045   4.435 -0.5603  3.5148  1.0428
  363GLU    H1352950   0.101   0.000   4.571  3.7577  1.4480  0.2196
  363GLU    H1452951   0.097   7.478   4.509  2.4643  1.1997  0.0425
  363GLU    H1552952   0.149   7.510   4.333 -2.0032 -2.8295 -1.5858
  363GLU    H1652953   7.686   7.553   4.276  0.2277 -1.5475 -1.2755
  364GLU     C152954   3.039   1.175   2.487 -0.6499  0.2233  0.0087
  364GLU     C252955   2.917   1.243   2.427  0.1197  0.2544  0.3250
  364GLU     C352956   2.970   1.368   2.356 -0.3444 -0.2602  1.1278
  364GLU     O152957   3.042   1.328   2.230 -0.5110  1.5000  0.0799
  364GLU     C452958   3.117   1.203   2.235 -0.0291 -0.2819  1.2019
  364GLU     C552959   3.254   1.194   2.146  0.3673 -0.5334  0.3124
  364GLU     C652960   3.260   1.195   1.990 -0.1492  1.0038  0.6530
  364GLU     C752961   3.406   1.185   1.914 -0.1995  0.3663 -1.6525
  364GLU     C852962   3.436   1.221   1.758  0.6485 -0.9242  0.2678
  364GLU     O252963   3.453   1.363   1.770 -0.5656 -0.3692  1.6608
  364GLU     C952964   3.451   1.431   1.638  0.7160  0.2726  0.1441
  364GLU    C1052965   3.565   1.378   1.539 -0.4345  0.0965  0.1727
  364GLU    C1152966   3.571   1.225   1.522  0.2454  0.7863 -0.4192
  364GLU     O352967   3.551   1.173   1.664  0.3198  0.2890 -1.3129
  364GLU     O452968   3.125   1.133   2.364 -0.0625  0.2738 -0.2065
  364GLU     H152969   3.108   1.252   2.523 -1.5783  1.6975 -1.2256
  364GLU     H252970   2.837   1.263   2.499 -0.1156  1.2316 -0.1890
  364GLU     H352971   2.869   1.194   2.342  1.4676 -3.0362  1.2842
  364GLU     H452972   3.030   1.409   2.438 -3.0845  3.9759  1.3622
  364GLU     H552973   3.054   1.133   2.179  4.4634 -1.2526 -3.2863
  364GLU     H652974   3.298   1.101   2.185 -2.1514 -1.4383  1.1814
  364GLU     H752975   3.308   1.279   2.188 -2.0693  0.1750  2.1829
  364GLU     H852976   3.221   1.292   1.955  2.1342  0.6294 -3.6095
  364GLU     H952977   3.199   1.107   1.968 -0.4563  0.6694  2.6463
  364GLU    H1052978   3.424   1.077   1.918  0.5092  0.2861 -4.5537
  364GLU    H1152979   3.482   1.229   1.980  1.0714 -2.1143 -1.3617
  364GLU    H1252980   3.344   1.220   1.699 -0.5634  1.8211  1.9205
  364GLU    H1352981   3.352   1.404   1.600  0.7224  0.4019  0.0365
  364GLU    H1452982   3.659   1.433   1.538 -0.2684 -0.1880 -1.1235
  364GLU    H1552983   3.544   1.403   1.435 -0.4493 -1.4421 -0.2257
  364GLU    H1652984   3.483   1.203   1.460  1.5493 -2.8292 -1.2453
  365GLU     C152985   1.698   2.778   1.201  0.0565 -0.8730  0.1998
  365GLU     C252986   1.799   2.713   1.296  0.1160 -0.2662  0.7825
  365GLU     C352987   1.927   2.809   1.302  0.7017  0.8100  0.2380
  365GLU     O152988   1.979   2.835   1.171 -0.5915  0.3465  0.0666
  365GLU     C452989   1.881   2.878   1.070 -0.2355 -0.0088 -0.9209
  365GLU     C552990   1.910   2.754   0.976  0.7064 -0.2361 -0.2967
  365GLU     C652991   2.034   2.767   0.891 -0.6622 -0.1226  0.5240
  365GLU     C752992   2.083   2.657   0.796 -0.4800  0.3762 -0.3360
  365GLU     C852993   2.172   2.677   0.677  0.0851 -0.2699 -0.0948
  365GLU     O252994   2.300   2.726   0.712 -0.5985  0.0845 -0.4618
  365GLU     C952995   2.401   2.736   0.600  1.0449  0.9466 -0.5432
  365GLU    C1052996   2.412   2.597   0.547 -0.1122 -0.7986  0.4501
  365GLU    C1152997   2.281   2.544   0.508  0.5074  0.4757  0.3880
  365GLU     O352998   2.199   2.537   0.620 -0.2315 -0.2367 -0.0474
  365GLU     O452999   1.747   2.867   1.110  0.3570  0.0868  0.0008
  365GLU     H153000   1.627   2.708   1.155  0.2259 -0.9447  0.0474
  365GLU     H253001   1.815   2.622   1.237 -1.8933  1.2806 -2.3989
  365GLU     H353002   1.762   2.703   1.399  0.7461  2.1508  1.3128
  365GLU     H453003   1.901   2.896   1.365  1.4978 -1.3596  3.8919
  365GLU     H553004   1.895   2.978   1.026  0.0818  1.8244  2.9671
  365GLU     H653005   1.829   2.736   0.904  1.3585 -3.2652 -0.3857
  365GLU     H753006   1.902   2.662   1.034  0.2921  0.4623  0.7824
  365GLU     H853007   2.125   2.799   0.944  1.0408  1.1302 -2.8605
  365GLU     H953008   1.997   2.845   0.823  0.7283 -2.7969 -3.7431
  365GLU    H1053009   1.994   2.608   0.756  0.6955 -0.9807 -1.3907
  365GLU    H1153010   2.151   2.592   0.853 -0.6764  0.4554 -0.0060
  365GLU    H1253011   2.115   2.738   0.607 -0.8583 -0.1538  0.7531
  365GLU    H1353012   2.357   2.800   0.523  2.3104  1.3928 -0.9250
  365GLU    H1453013   2.447   2.528   0.625  2.1447 -1.5837 -1.1374
  365GLU    H1553014   2.474   2.596   0.456 -4.5419  0.0928 -2.9167
  365GLU    H1653015   2.238   2.611   0.432  1.9626  0.7163 -0.2562
  366GLU     C153016   3.348   6.401   3.574  0.3389  0.7541 -0.1593
  366GLU     C253017   3.265   6.300   3.649  0.0339  0.3545 -0.7580
  366GLU     C353018   3.223   6.164   3.609  1.0258 -0.5576 -0.0065
  366GLU     O153019   3.168   6.191   3.473  0.9441  0.8166  0.1278
  366GLU     C453020   3.257   6.248   3.382 -0.0815 -0.4592  0.6671
  366GLU     C553021   3.195   6.236   3.234  0.9901 -0.5935  0.0803
  366GLU     C653022   3.115   6.101   3.188 -0.0259 -0.1755 -0.2490
  366GLU     C753023   2.990   6.107   3.081  0.2317  0.8841 -0.4491
  366GLU     C853024   2.895   5.975   3.061 -0.0459 -0.5665  0.3239
  366GLU     O253025   2.765   5.989   3.140 -1.0996  0.3416 -0.8004
  366GLU     C953026   2.641   5.936   3.084  0.1348  0.3392 -0.3144
  366GLU    C1053027   2.671   5.833   2.979 -0.3767  0.5003  0.0685
  366GLU    C1153028   2.735   5.923   2.871  0.4382 -0.1893  0.4343
  366GLU     O353029   2.866   5.952   2.922  0.3175 -0.2522  0.5118
  366GLU     O453030   3.306   6.388   3.430 -0.8530 -0.3370 -0.8681
  366GLU     H153031   3.453   6.373   3.594  0.8426  1.9764 -1.0020
  366GLU     H253032   3.181   6.350   3.698  0.5594  1.6731 -1.1517
  366GLU     H353033   3.337   6.280   3.730 -0.9645  1.7743  0.5458
  366GLU     H453034   3.146   6.137   3.682  0.2389  2.0116  0.2126
  366GLU     H553035   3.342   6.180   3.374 -0.7567 -1.2637  0.1418
  366GLU     H653036   3.273   6.271   3.165  2.1399 -2.0724  0.5767
  366GLU     H753037   3.113   6.308   3.221  0.2886 -0.7568  2.9021
  366GLU     H853038   3.072   6.074   3.285  0.4508 -0.0441  0.0016
  366GLU     H953039   3.191   6.022   3.182 -2.6709 -2.9552  0.1165
  366GLU    H1053040   3.026   6.122   2.979 -0.4527 -3.8845 -1.6316
  366GLU    H1153041   2.939   6.202   3.104  3.1206  3.1942 -2.8423
  366GLU    H1253042   2.956   5.888   3.087 -0.1102 -1.1143 -1.2580
  366GLU    H1353043   2.573   6.016   3.051 -0.7962  0.4921  1.7613
  366GLU    H1453044   2.581   5.791   2.933  1.3431 -4.5629  0.7036
  366GLU    H1553045   2.726   5.748   3.021 -2.4592 -1.2602 -0.5937
  366GLU    H1653046   2.672   6.012   2.863  0.9565  0.3927  2.2316
  367GLU     C153047   5.323   0.265   5.119  0.6954  0.9727 -0.8489
  367GLU     C253048   5.356   0.161   5.006  1.0549  0.1248 -0.7815
  367GLU     C353049   5.433   0.233   4.892  0.0200  1.0901  0.1397
  367GLU     O153050   5.515   0.341   4.946 -0.1802 -0.5646  0.1617
  367GLU     C453051   5.441   0.456   5.005 -0.3363 -0.8540 -0.3047
  367GLU     C553052   5.386   0.559   4.911  0.6011 -0.2050  0.7453
  367GLU     C653053   5.488   0.606   4.797  0.6895 -0.2027 -1.2455
  367GLU     C753054   5.419   0.693   4.682 -0.2163 -0.3961  0.2678
  367GLU     C853055   5.371   0.839   4.707 -0.4700  0.7551 -0.4278
  367GLU     O253056   5.323   0.861   4.848 -0.1452  0.4547 -1.0764
  367GLU     C953057   5.375   0.989   4.904 -0.0904 -0.1845  0.8747
  367GLU    C1053058   5.375   1.104   4.807 -0.2719  0.1087  0.2161
  367GLU    C1153059   5.427   1.077   4.659 -0.9947 -1.0741  1.0640
  367GLU     O353060   5.469   0.930   4.653  0.2740 -0.7303  0.9645
  367GLU     O453061   5.323   0.407   5.085  0.5462 -0.2432 -1.1457
  367GLU     H153062   5.396   0.247   5.199  3.1303  2.7450 -2.5525
  367GLU     H253063   5.271   0.113   4.957  0.5921  1.7546 -1.6250
  367GLU     H353064   5.426   0.085   5.044  3.1327  2.4434  0.3188
  367GLU     H453065   5.354   0.265   4.823 -2.5409 -3.4554  0.5684
  367GLU     H553066   5.519   0.499   5.069  0.2120  4.6439 -3.9829
  367GLU     H653067   5.362   0.642   4.979  1.8790  0.0481  0.9215
  367GLU     H753068   5.289   0.531   4.868 -3.0221  4.8750  4.3176
  367GLU     H853069   5.550   0.523   4.763  1.5073  0.0279 -0.3675
  367GLU     H953070   5.562   0.670   4.846  1.3569 -2.3459  0.7283
  367GLU    H1053071   5.324   0.644   4.655 -1.0289 -0.5563  3.0831
  367GLU    H1153072   5.486   0.688   4.595 -0.3392 -0.4914  0.1778
  367GLU    H1253073   5.289   0.853   4.635  0.8949  0.7834 -2.0318
  367GLU    H1353074   5.481   0.972   4.924  1.2325  2.9861 -2.3487
  367GLU    H1453075   5.420   1.196   4.847 -3.2500  1.8290 -0.0798
  367GLU    H1553076   5.274   1.145   4.792 -0.1040  0.1308 -0.9870
  367GLU    H1653077   5.339   1.106   4.602 -1.0834  0.5696  1.9711
  368GLU     C153078   2.177   1.820   5.924 -0.3231  0.8151 -0.3788
  368GLU     C253079   2.125   1.770   5.784 -0.6080 -0.0719  1.0769
  368GLU     C353080   2.186   1.817   5.654 -0.9552 -0.2519  0.1638
  368GLU     O153081   2.182   1.959   5.670  0.0405 -0.9464 -0.2308
  368GLU     C453082   2.275   1.997   5.777 -0.5280 -0.5044  0.9579
  368GLU     C553083   2.272   2.142   5.761 -0.1295 -0.0516 -0.5001
  368GLU     C653084   2.261   2.200   5.617 -0.4384 -1.4226 -1.2458
  368GLU     C753085   2.133   2.221   5.548 -0.2898  0.2803 -0.5882
  368GLU     C853086   2.140   2.320   5.427 -0.7779  0.6125 -0.4228
  368GLU     O253087   2.058   2.427   5.475 -0.5008  0.3074  0.6387
  368GLU     C953088   2.107   2.555   5.448  0.0889 -0.0844 -0.5819
  368GLU    C1053089   2.161   2.574   5.306 -0.0231 -0.0499 -0.9993
  368GLU    C1153090   2.290   2.490   5.315 -0.5067  0.0754 -1.1365
  368GLU     O353091   2.275   2.367   5.385  0.4786  0.3069 -0.0227
  368GLU     O453092   2.253   1.947   5.911  0.9421 -0.3136 -0.4693
  368GLU     H153093   2.081   1.841   5.971 -1.8381  3.2417 -4.1125
  368GLU     H253094   2.018   1.794   5.778 -1.1864 -2.6979 -1.8256
  368GLU     H353095   2.112   1.661   5.790  0.9425 -0.4708 -1.4518
  368GLU     H453096   2.288   1.783   5.632 -0.1468  1.8630  0.3872
  368GLU     H553097   2.368   1.955   5.739 -0.7306 -2.4854  2.5174
  368GLU     H653098   2.362   2.191   5.799 -1.6418  1.2598  1.6340
  368GLU     H753099   2.189   2.175   5.825  1.9216  2.1620  1.1980
  368GLU     H853100   2.325   2.129   5.563  0.8327 -1.2983  0.0181
  368GLU     H953101   2.317   2.294   5.631 -1.7664 -0.8884  0.9098
  368GLU    H1053102   2.056   2.243   5.622  0.5144 -4.3226  1.9640
  368GLU    H1153103   2.079   2.137   5.502 -0.9975 -1.1491  2.5926
  368GLU    H1253104   2.092   2.260   5.349  0.3384 -5.2006  2.7404
  368GLU    H1353105   2.188   2.558   5.522 -2.3173  0.6258  2.2299
  368GLU    H1453106   2.175   2.682   5.298 -3.0405  0.3001 -3.5764
  368GLU    H1553107   2.084   2.559   5.229 -0.9298  1.2074 -0.3851
  368GLU    H1653108   2.362   2.555   5.367  0.5010 -2.9892  1.6308
  369GLU     C153109   7.371   2.825   1.902 -0.2581 -0.2270  0.6720
  369GLU     C253110   7.336   2.954   1.981  0.4343 -0.5407 -1.5374
  369GLU     C353111   7.457   3.059   1.995  0.2663  0.3984  0.0038
  369GLU     O153112   7.507   3.079   1.855  1.2125 -0.1367  0.0169
  369GLU     C453113   7.526   2.961   1.775 -0.8659 -1.3556  0.3621
  369GLU     C553114   7.666   2.957   1.701 -0.3607 -0.0948  0.0546
  369GLU     C653115   7.755   3.071   1.753  0.5543 -0.2238 -0.2988
  369GLU     C753116   0.140   3.059   1.722  0.3959  1.0396  0.2520
  369GLU     C853117   0.225   3.185   1.751 -0.1798  0.3512 -0.5992
  369GLU     O253118   0.231   3.200   1.894 -0.3810 -0.0100  0.4580
  369GLU     C953119   0.303   3.313   1.941  0.5361  0.7328 -0.0404
  369GLU    C1053120   0.395   3.365   1.835  0.4165  0.4147  0.8523
  369GLU    C1153121   0.460   3.248   1.749  1.0036 -0.8225  0.7147
  369GLU     O353122   0.363   3.155   1.717  0.3555 -0.9026  0.1023
  369GLU     O453123   7.495   2.842   1.845  0.8146 -0.6581  0.1814
  369GLU     H153124   7.298   2.831   1.820  1.7744  1.5090 -1.1637
  369GLU     H253125   7.294   2.931   2.080 -0.3774  0.1135 -1.7145
  369GLU     H353126   7.254   3.006   1.929  0.6446  1.1488 -0.2688
  369GLU     H453127   7.422   3.156   2.033  1.2722  1.0925 -0.7917
  369GLU     H553128   7.461   2.981   1.689 -1.5020  3.9344  1.7093
  369GLU     H653129   7.646   2.992   1.599  0.5622  1.9314  0.5163
  369GLU     H753130   7.718   2.863   1.679  1.0243  1.0613 -2.0370
  369GLU     H853131   7.745   3.049   1.860  2.4730 -0.8442 -0.1974
  369GLU     H953132   7.713   3.170   1.730 -1.5523 -0.1669  3.1234
  369GLU    H1053133   0.129   3.024   1.619 -1.8502  0.4403  0.6425
  369GLU    H1153134   0.175   2.964   1.764 -0.7522 -0.1136 -1.2829
  369GLU    H1253135   0.185   3.273   1.699 -1.7284  2.2085  3.3156
  369GLU    H1353136   0.357   3.273   2.027  1.8968  0.6508 -0.9023
  369GLU    H1453137   0.470   3.432   1.878 -2.4853  2.2886  3.4361
  369GLU    H1553138   0.327   3.423   1.772  1.9994  2.3441  0.8530
  369GLU    H1653139   0.537   3.197   1.808 -0.0593 -1.2634  1.7638
  370GLU     C153140   1.788   3.934   7.973  0.6620  0.4612  0.7682
  370GLU     C253141   1.682   3.833   7.893 -0.6526  0.2614 -1.7400
  370GLU     C353142   1.573   3.906   7.815  0.7482  0.3583 -0.6510
  370GLU     O153143   1.646   4.002   7.743 -0.2478 -0.3379  0.8256
  370GLU     C453144   1.722   4.102   7.817 -0.0658 -0.8403 -0.0737
  370GLU     C553145   1.672   4.244   7.799  0.9688  2.2002 -0.4265
  370GLU     C653146   1.671   4.316   7.665 -0.4243  0.4492  0.8858
  370GLU     C753147   1.580   4.263   7.556 -0.1700 -0.3787  0.1165
  370GLU     C853148   1.431   4.230   7.602 -0.8260  0.9296  0.5482
  370GLU     O253149   1.403   4.328   7.705  0.0156  0.0670 -0.0905
  370GLU     C953150   1.279   4.318   7.760  0.1798 -0.0238  0.0531
  370GLU    C1053151   1.188   4.352   7.638 -0.0312  0.2716 -0.4122
  370GLU    C1153152   1.228   4.322   7.488  0.2181 -1.1040 -0.9947
  370GLU     O353153   1.324   4.218   7.505 -0.0696 -1.0417  0.0882
  370GLU     O453154   1.728   4.067   7.956  0.2444 -0.1273 -0.7442
  370GLU     H153155   1.878   3.931   7.911 -0.3473  0.1484 -0.7373
  370GLU     H253156   1.625   3.768   7.960 -0.5039 -2.6158 -4.2184
  370GLU     H353157   1.735   3.774   7.818 -0.6174  2.4300 -3.5196
  370GLU     H453158   1.485   3.942   7.870 -0.5835 -1.8195 -1.2592
  370GLU     H553159   1.820   4.100   7.769  0.2215  0.2070  0.4444
  370GLU     H653160   1.722   4.310   7.871  0.8284  3.2632 -1.2715
  370GLU     H753161   1.568   4.238   7.834  1.6076  1.7363  1.5099
  370GLU     H853162   1.775   4.302   7.632 -1.0005  1.6148 -1.6391
  370GLU     H953163   1.662   4.422   7.690  1.0325  0.9588 -0.5772
  370GLU    H1053164   1.619   4.166   7.523  1.0124  0.6082 -1.5600
  370GLU    H1153165   1.567   4.326   7.467  1.2171 -0.2350  0.0060
  370GLU    H1253166   1.419   4.132   7.650  0.7096  1.0406  1.2020
  370GLU    H1353167   1.269   4.217   7.802 -0.6320  0.5224  1.2505
  370GLU    H1453168   1.162   4.459   7.635  2.3717  1.0700  2.2967
  370GLU    H1553169   1.087   4.312   7.647 -0.2328 -0.5837 -4.5565
  370GLU    H1653170   1.277   4.409   7.443 -1.1699  2.4608  3.6139
  371GLU     C153171   7.399   7.223   7.591  0.2991 -0.2930  1.0889
  371GLU     C253172   7.538   7.255   7.513  0.7510 -0.4072 -0.4687
  371GLU     C353173   7.658   7.179   7.563 -1.7611 -0.0842 -0.0839
  371GLU     O153174   7.621   7.045   7.600 -0.1435 -0.1180  0.2289
  371GLU     C453175   7.508   7.036   7.696 -0.4974 -0.3414  0.7496
  371GLU     C553176   7.571   6.998   7.826  0.4321 -0.6634  0.6978
  371GLU     C653177   7.493   6.889   7.900 -0.2250  0.1278 -0.3195
  371GLU     C753178   7.554   6.744   7.882 -1.1545 -0.4362 -0.7742
  371GLU     C853179   7.604   6.687   8.012  0.3175  1.0759 -0.6090
  371GLU     O253180   7.479   6.643   8.046 -0.1753 -0.2042  0.5178
  371GLU     C953181   7.464   6.551   0.061  0.4332  0.6623  0.9131
  371GLU    C1053182   7.553   6.428   0.027  0.0999  0.1540  0.2350
  371GLU    C1153183   7.694   6.456   0.004 -1.2762 -0.0276  0.7242
  371GLU     O353184   7.691   6.570   8.000 -0.7094 -0.1606 -1.1374
  371GLU     O453185   7.441   7.158   7.710 -0.4006 -0.3864 -0.1824
  371GLU     H153186   7.338   7.159   7.525 -4.9035  1.3421  3.8151
  371GLU     H253187   7.559   7.361   7.497 -0.9910 -0.1117 -0.9896
  371GLU     H353188   7.523   7.217   7.411 -4.3471 -1.9939  0.5894
  371GLU     H453189   7.687   7.247   7.643  0.1688 -1.4146  0.4102
  371GLU     H553190   7.444   6.955   7.657  1.2528 -2.8565  2.7830
  371GLU     H653191   7.572   7.088   7.888  0.5530  1.3690 -2.0876
  371GLU     H753192   7.676   6.968   7.822 -0.6862 -5.1661 -0.8313
  371GLU     H853193   7.388   6.882   7.871 -1.2683  0.3134  2.9333
  371GLU     H953194   7.488   6.913   8.007  1.9273  2.7681 -0.6970
  371GLU    H1053195   7.636   6.744   7.809 -1.1073  1.5585 -0.7940
  371GLU    H1153196   7.466   6.694   7.840 -0.2138 -2.5013 -0.4109
  371GLU    H1253197   7.636   6.766   8.081 -4.9846  2.5658  0.5707
  371GLU    H1353198   7.496   6.602   0.153 -0.9240 -0.3629  2.0101
  371GLU    H1453199   7.498   6.397   8.034  3.2500 -0.3306 -1.7051
  371GLU    H1553200   7.537   6.359   0.110 -1.9311 -0.7540 -0.8477
  371GLU    H1653201   7.731   6.499   0.098 -2.2337  1.9021  0.2705
  372GLU     C153202   3.372   5.490   6.015  0.2460 -0.6261 -0.4277
  372GLU     C253203   3.458   5.540   6.136  0.0306 -0.7083 -0.2537
  372GLU     C353204   3.598   5.533   6.099 -1.4776  0.5717  0.9695
  372GLU     O153205   3.610   5.419   6.005  0.0242  0.2725  0.2096
  372GLU     C453206   3.552   5.446   5.867  1.0409  0.9803  0.6630
  372GLU     C553207   3.505   5.320   5.788  0.4367  0.0943 -0.0980
  372GLU     C653208   3.414   5.341   5.667  0.2519 -0.4509  0.1837
  372GLU     C753209   3.499   5.350   5.532  0.1357 -0.1231  0.7773
  372GLU     C853210   3.433   5.452   5.436  0.8370  0.0297 -0.3643
  372GLU     O253211   3.536   5.500   5.323  0.3873 -1.1191 -0.9914
  372GLU     C953212   3.486   5.552   5.195  0.9567 -0.9738  0.6605
  372GLU    C1053213   3.347   5.612   5.227  0.2580  0.5214  1.0626
  372GLU    C1153214   3.248   5.507   5.281  0.4651 -0.6440 -0.5452
  372GLU     O353215   3.312   5.412   5.371  0.4757  0.2620 -0.5425
  372GLU     O453216   3.433   5.519   5.896  0.4244  0.2477 -0.3008
  372GLU     H153217   3.356   5.387   6.049  1.1865 -0.3879  0.8067
  372GLU     H253218   3.421   5.465   6.207  0.6896  2.2045  3.4278
  372GLU     H353219   3.429   5.623   6.201 -2.7115 -1.7939  0.0752
  372GLU     H453220   3.640   5.624   6.055  2.2324 -0.8623  1.2008
  372GLU     H553221   3.620   5.503   5.803  1.2722 -1.7925 -1.7574
  372GLU     H653222   3.427   5.268   5.845 -0.7236 -1.5000 -2.9260
  372GLU     H753223   3.583   5.244   5.783 -1.3662 -1.9522  1.3322
  372GLU     H853224   3.344   5.426   5.671  0.1505 -0.5791  3.0472
  372GLU     H953225   3.355   5.250   5.652 -0.9631 -0.1658  2.6992
  372GLU    H1053226   3.508   5.248   5.495 -0.0234 -0.8061  2.5432
  372GLU    H1153227   3.605   5.376   5.540  0.5616 -1.6685  0.3757
  372GLU    H1253228   3.405   5.537   5.498 -0.2513 -0.2513 -0.4402
  372GLU    H1353229   3.463   5.471   5.125 -0.5748 -0.8243  0.9700
  372GLU    H1453230   3.324   5.638   5.123  0.4092  2.2339  1.4282
  372GLU    H1553231   3.333   5.693   5.299 -0.7143 -1.8483  3.7123
  372GLU    H1653232   3.170   5.577   5.314  1.0442  1.7010 -3.7883
  373GLU     C153233   3.438   3.020   0.212 -0.0767  0.8222 -0.7465
  373GLU     C253234   3.530   2.971   0.336  0.3697  0.4338  0.4364
  373GLU     C353235   3.514   2.837   0.414  0.2986  1.1246  0.0963
  373GLU     O153236   3.381   2.805   0.363 -0.6619 -0.1450 -0.3924
  373GLU     C453237   3.382   2.781   0.217 -0.0252 -0.3244 -0.2530
  373GLU     C553238   3.247   2.711   0.175 -0.3045 -0.8129 -0.2014
  373GLU     C653239   3.222   2.726   0.030  0.8385  0.2120  0.4291
  373GLU     C753240   3.072   2.674   0.002 -0.4068 -0.8413  0.4048
  373GLU     C853241   3.057   2.534   8.036 -0.4591  0.1672  1.0476
  373GLU     O253242   2.910   2.514   8.007 -0.8802  0.1626  0.3200
  373GLU     C953243   2.876   2.380   7.980 -0.0802 -0.1481 -1.1184
  373GLU    C1053244   2.953   2.344   7.857 -1.5196  0.7196  1.0546
  373GLU    C1153245   3.103   2.393   7.851  0.1692  0.1243  0.4117
  373GLU     O353246   3.126   2.519   7.910  0.3642  0.0104  0.1205
  373GLU     O453247   3.408   2.902   0.141 -1.0852 -0.3747  0.3787
  373GLU     H153248   3.366   3.087   0.259 -1.3823 -1.3900  0.5603
  373GLU     H253249   3.511   3.053   0.406  0.0812  1.4702 -0.8225
  373GLU     H353250   3.635   2.989   0.311  0.8675 -1.9332  0.6225
  373GLU     H453251   3.571   2.760   0.361 -1.6961 -0.1285 -0.3515
  373GLU     H553252   3.468   2.717   0.192  1.1774  1.0460  0.2718
  373GLU     H653253   3.169   2.760   0.235  2.9584  0.8746  3.0662
  373GLU     H753254   3.242   2.607   0.211 -2.1840 -0.1367  1.7503
  373GLU     H853255   3.303   2.668   8.082  2.1563  0.6378  2.1149
  373GLU     H953256   3.220   2.835   0.015  0.0142  0.2138  0.4894
  373GLU    H1053257   3.012   2.745   8.041  1.0039 -0.8547 -1.1304
  373GLU    H1153258   3.014   2.666   0.095  2.3739 -1.0347  2.2448
  373GLU    H1253259   3.069   2.447   0.005  2.7793 -0.2985 -0.0041
  373GLU    H1353260   2.915   2.323   8.065  2.1495 -1.3815 -2.8496
  373GLU    H1453261   2.901   2.362   7.762  1.2614  0.6602 -0.5632
  373GLU    H1553262   2.950   2.237   7.882 -0.9983  0.9911  2.3772
  373GLU    H1653263   3.160   2.310   7.894  3.7032  0.9622 -2.1852
  374GLU     C153264   7.388   2.597   3.286  1.5600  1.4352  0.1719
  374GLU     C253265   7.280   2.489   3.324 -1.3913 -0.6291 -0.3062
  374GLU     C353266   7.358   2.348   3.313  0.0490 -0.3653 -0.2100
  374GLU     O153267   7.443   2.351   3.439  0.5404 -0.2592  0.7180
  374GLU     C453268   7.524   2.467   3.455  1.0066  0.7364 -0.2681
  374GLU     C553269   7.670   2.455   3.496  1.0290 -1.3560  0.4210
  374GLU     C653270   0.018   2.496   3.387 -0.1094 -0.1010  0.2878
  374GLU     C753271   0.170   2.503   3.423 -0.5673  0.8146  1.7711
  374GLU     C853272   0.277   2.510   3.304 -0.2669 -0.3498 -0.3548
  374GLU     O253273   0.282   2.650   3.257  0.0165 -0.7505  0.3770
  374GLU     C953274   0.376   2.726   3.329  0.6253 -0.5391  0.6287
  374GLU    C1053275   0.510   2.701   3.251  0.2436  0.1213  1.6872
  374GLU    C1153276   0.519   2.539   3.244 -0.0425  0.1590 -0.3618
  374GLU     O353277   0.413   2.480   3.338 -0.8973  0.4377  0.2114
  374GLU     O453278   7.515   2.549   3.331 -0.1563 -0.3231  0.3440
  374GLU     H153279   7.399   2.592   3.177  2.3841 -0.9964  0.2984
  374GLU     H253280   7.194   2.495   3.257 -1.7790  1.9360  0.3128
  374GLU     H353281   7.260   2.507   3.431  3.0917 -0.8918  0.7621
  374GLU     H453282   7.423   2.352   3.225 -1.0217  2.2291 -0.9686
  374GLU     H553283   7.484   2.524   3.540  2.1612  2.5224 -0.8533
  374GLU     H653284   7.687   2.355   3.538 -0.5568 -1.8672 -0.0717
  374GLU     H753285   7.681   2.516   3.586 -0.6551  1.6494 -1.2504
  374GLU     H853286   7.752   2.589   3.338 -2.1434 -0.0128  1.6313
  374GLU     H953287   0.013   2.426   3.302  2.4858 -0.0757  0.0474
  374GLU    H1053288   0.215   2.415   3.470  1.9538  2.3437  2.4044
  374GLU    H1153289   0.191   2.576   3.503  1.7802  1.8693  0.3115
  374GLU    H1253290   0.246   2.440   3.226 -3.5418 -2.0992  2.2726
  374GLU    H1353291   0.376   2.686   3.431  0.5487  1.7124  1.5704
  374GLU    H1453292   0.600   2.759   3.276  1.9822 -1.3246 -0.7654
  374GLU    H1553293   0.484   2.740   3.151 -2.9702  2.6230  3.3178
  374GLU    H1653294   0.488   2.510   3.142 -1.4415  0.6639 -0.0970
  375GLU     C153295   7.525   3.777   5.739  0.1297  0.0634 -0.1880
  375GLU     C253296   7.401   3.801   5.835  1.3974 -0.1549 -0.2908
  375GLU     C353297   7.295   3.905   5.779  1.4459 -1.0234  0.7593
  375GLU     O153298   7.253   3.852   5.654 -0.1953  0.7991  0.5019
  375GLU     C453299   7.353   3.875   5.560  0.3186  1.2535 -0.8586
  375GLU     C553300   7.342   4.017   5.514 -0.4201 -0.7370  0.3962
  375GLU     C653301   7.208   4.040   5.436  0.6078 -0.3220 -0.8520
  375GLU     C753302   7.202   4.181   5.374  0.1160 -1.1639  0.2600
  375GLU     C853303   7.185   4.301   5.465  0.6988  0.0432 -0.1822
  375GLU     O253304   7.303   4.381   5.503 -0.1731 -0.0909  0.6139
  375GLU     C953305   7.278   4.476   5.599  0.8860  1.0227  0.0358
  375GLU    C1053306   7.187   4.581   5.538 -0.5227 -0.8801  1.1543
  375GLU    C1153307   7.063   4.508   5.483  0.8398 -0.0241  0.3829
  375GLU     O353308   7.094   4.384   5.413  0.0884  0.2326  0.8728
  375GLU     O453309   7.493   3.844   5.607  0.9399  0.3826 -0.3824
  375GLU     H153310   7.621   3.814   5.778 -0.8704  2.3149  0.2946
  375GLU     H253311   7.439   3.847   5.927  1.9534 -0.6369 -0.2764
  375GLU     H353312   7.343   3.709   5.854  3.2064 -1.1653  0.6332
  375GLU     H453313   7.353   3.997   5.774  3.9233 -2.4169  1.7958
  375GLU     H553314   7.328   3.804   5.480 -0.2177 -0.8612  1.0856
  375GLU     H653315   7.421   4.021   5.438 -2.5467 -3.0342 -2.1560
  375GLU     H753316   7.359   4.089   5.595 -0.8767 -1.4544  1.1594
  375GLU     H853317   7.126   4.019   5.505  2.3791  0.8997  1.8077
  375GLU     H953318   7.198   3.966   5.356 -0.4276  1.8984 -2.9094
  375GLU    H1053319   7.131   4.185   5.290 -1.8312  4.4919  1.7403
  375GLU    H1153320   7.300   4.184   5.326  0.9661  0.1612  1.9633
  375GLU    H1253321   7.161   4.261   5.565 -0.7722 -0.9794 -0.9013
  375GLU    H1353322   7.229   4.415   5.676  0.2051  0.0453 -1.1420
  375GLU    H1453323   7.232   4.654   5.471 -1.4519 -0.2997  1.1334
  375GLU    H1553324   7.172   4.648   5.624  2.5999  0.6438  0.6194
  375GLU    H1653325   7.010   4.579   5.418 -0.4509  0.0394  1.4710
  376GLU     C153326   1.363   0.062   5.054 -0.2225 -0.7888 -0.1931
  376GLU     C253327   1.464   0.127   4.966  0.9129 -0.2459 -0.2442
  376GLU     C353328   1.445   0.282   4.965  0.4661 -0.1593 -0.0295
  376GLU     O153329   1.332   0.319   5.048 -0.1833 -0.0876  0.5266
  376GLU     C453330   1.317   0.261   5.178 -0.1048  1.8219  0.7133
  376GLU     C553331   1.184   0.266   5.250  0.0021  0.0401  0.7283
  376GLU     C653332   1.065   0.176   5.196 -0.5097  0.6694 -0.6828
  376GLU     C753333   0.943   0.175   5.294 -1.0427  0.0625  0.1694
  376GLU     C853334   0.975   0.170   5.445  0.2917  0.7316 -0.3649
  376GLU     O253335   0.995   0.306   5.493  0.4955 -0.0902  0.4717
  376GLU     C953336   1.047   0.290   5.625 -1.1505  0.2326 -0.5341
  376GLU    C1053337   0.967   0.197   5.714 -0.1174 -0.0386  0.5435
  376GLU    C1153338   0.840   0.133   5.656 -0.9725 -0.9891  0.3110
  376GLU     O353339   0.858   0.102   5.516 -0.0204 -0.0683  0.1428
  376GLU     O453340   1.384   0.128   5.184  0.0455 -0.3566  0.6911
  376GLU     H153341   1.263   0.095   5.025 -0.3275  2.9634  3.4611
  376GLU     H253342   1.450   0.108   4.859 -0.7368 -0.2270 -0.0587
  376GLU     H353343   1.571   0.120   4.987  2.1443  1.3503 -4.8123
  376GLU     H453344   1.405   0.291   4.863 -0.8932 -2.6048  0.2063
  376GLU     H553345   1.390   0.321   5.234  2.4242  0.0820 -0.5087
  376GLU     H653346   1.150   0.369   5.259 -3.8545 -1.0264  0.2260
  376GLU     H753347   1.216   0.226   5.347  1.9039 -0.4567 -0.0683
  376GLU     H853348   1.124   0.084   5.194 -2.8005 -0.8869  0.1995
  376GLU     H953349   1.031   0.194   5.093  0.5879  3.4536 -0.6633
  376GLU    H1053350   0.896   0.080   5.264  2.0237 -3.0011  3.8747
  376GLU    H1153351   0.873   0.259   5.287 -2.6493 -1.1106  1.2074
  376GLU    H1253352   1.069   0.114   5.443 -1.0947 -1.7591  0.7461
  376GLU    H1353353   1.146   0.249   5.603 -1.4966  0.5602 -2.9651
  376GLU    H1453354   0.942   0.236   5.814  2.2656 -1.4138  1.7669
  376GLU    H1553355   1.027   0.109   5.741 -4.6459 -4.3234 -1.7439
  376GLU    H1653356   0.774   0.220   5.663  0.7283  0.8234 -3.1513
  377GLU     C153357   1.862   3.368   6.684 -0.0602  0.7627 -0.8119
  377GLU     C253358   1.988   3.315   6.756  0.9352  0.2141 -0.8764
  377GLU     C353359   2.122   3.384   6.719 -0.3087 -0.0958  0.1148
  377GLU     O153360   2.089   3.529   6.707  0.0848 -0.3167 -1.0945
  377GLU     C453361   1.980   3.575   6.646  0.0579  0.4276  1.1115
  377GLU     C553362   2.016   3.682   6.545 -0.0360 -0.8467 -0.8616
  377GLU     C653363   1.998   3.818   6.602  0.6555 -0.2851 -0.5242
  377GLU     C753364   2.044   3.923   6.505 -0.1220  0.5336  0.1334
  377GLU     C853365   2.024   4.068   6.556 -0.4507  0.0906  0.3949
  377GLU     O253366   2.082   4.169   6.477 -1.2274  0.3647  0.1708
  377GLU     C953367   2.016   4.193   6.354  0.4812  0.5157 -0.1946
  377GLU    C1053368   1.868   4.214   6.387 -0.5920  0.3396  0.3899
  377GLU    C1153369   1.795   4.097   6.457 -0.5089  0.1965 -0.2275
  377GLU     O353370   1.888   4.078   6.567  0.4313  0.2323 -0.7596
  377GLU     O453371   1.910   3.464   6.587 -0.2894 -0.4182 -0.5059
  377GLU     H153372   1.798   3.287   6.648  2.3874  0.2768 -4.7446
  377GLU     H253373   1.994   3.208   6.732  0.4572  0.2298 -1.0741
  377GLU     H353374   1.956   3.317   6.860 -4.6560  2.1196 -2.2586
  377GLU     H453375   2.160   3.342   6.625  1.0978  1.5454 -0.0972
  377GLU     H553376   1.912   3.618   6.721 -1.5281  2.8749 -1.4779
  377GLU     H653377   1.976   3.673   6.443  3.3055  0.2792 -2.4049
  377GLU     H753378   2.124   3.666   6.534  0.3056  1.8472 -2.3005
  377GLU     H853379   2.060   3.828   6.692 -1.0740 -1.5956  0.8843
  377GLU     H953380   1.891   3.834   6.621  0.1012 -1.9684 -1.9567
  377GLU    H1053381   1.977   3.915   6.418 -2.7369  2.4424  1.7996
  377GLU    H1153382   2.152   3.916   6.487 -0.1381 -0.4869  0.4022
  377GLU    H1253383   2.073   4.083   6.653  1.2678 -2.0257 -0.0744
  377GLU    H1353384   2.011   4.099   6.299 -1.3174  1.3457 -1.5595
  377GLU    H1453385   1.818   4.223   6.290  2.6390 -4.6276 -2.1643
  377GLU    H1553386   1.866   4.307   6.446 -2.2489  1.3739 -1.1902
  377GLU    H1653387   1.782   4.005   6.398  0.8038  0.2207 -0.5803
  378GLU     C153388   5.427   2.689   7.255 -0.5876  0.3785  1.3221
  378GLU     C253389   5.385   2.682   7.104  0.3640 -0.0629  0.9442
  378GLU     C353390   5.237   2.636   7.103 -1.0995 -0.9404 -0.0671
  378GLU     O153391   5.223   2.504   7.167  0.1194 -0.0788  0.0577
  378GLU     C453392   5.279   2.514   7.306 -0.5919  0.0036 -0.2715
  378GLU     C553393   5.252   2.374   7.377 -0.0741  0.2627 -0.0725
  378GLU     C653394   5.271   2.364   7.530 -0.2520 -0.1702 -0.5359
  378GLU     C753395   5.162   2.442   7.609 -1.8059  0.5918 -0.6483
  378GLU     C853396   5.173   2.448   7.764 -0.3445  0.3629 -0.2139
  378GLU     O253397   5.041   2.456   7.817 -0.2125  0.3170  0.2756
  378GLU     C953398   5.031   2.389   7.951 -0.2840 -0.6522  0.4420
  378GLU    C1053399   5.061   2.236   7.925  0.0141 -0.5723 -0.2409
  378GLU    C1153400   5.163   2.212   7.807 -0.4073 -0.0712 -0.1220
  378GLU     O353401   5.245   2.326   7.796  0.1235 -0.1604 -0.3858
  378GLU     O453402   5.413   2.556   7.309  0.0371 -0.6771 -0.0827
  378GLU     H153403   5.367   2.769   7.300  1.3365  1.2306  2.4889
  378GLU     H253404   5.456   2.619   7.049  0.2155 -1.4104  2.2444
  378GLU     H353405   5.409   2.782   7.066  4.4491 -0.4402  2.1162
  378GLU     H453406   5.155   2.691   7.152 -5.1301 -3.8652 -2.8437
  378GLU     H553407   5.213   2.586   7.357 -0.7652 -2.2013  2.9077
  378GLU     H653408   5.323   2.301   7.335 -1.6401 -0.0269 -2.4175
  378GLU     H753409   5.151   2.340   7.352 -0.8441  3.5593 -2.0175
  378GLU     H853410   5.375   2.388   7.557 -0.3267  0.6163 -0.9117
  378GLU     H953411   5.274   2.256   7.550 -1.9464 -0.0784  0.5103
  378GLU    H1053412   5.059   2.410   7.591 -2.7144  2.6941  0.3994
  378GLU    H1153413   5.172   2.549   7.586 -0.2155  1.2547  2.5628
  378GLU    H1253414   5.223   2.542   7.791 -2.1932  0.8711  1.7693
  378GLU    H1353415   5.112   2.437   8.007  0.4480  0.0291 -1.1296
  378GLU    H1453416   5.097   2.189   8.017  0.4787 -1.4876 -0.8721
  378GLU    H1553417   4.967   2.186   7.900  0.4397 -0.6689 -1.8186
  378GLU    H1653418   5.110   2.214   7.711  0.7988 -1.6192 -0.8527
  379GLU     C153419   1.076   5.235   6.105  0.1187  0.6175  0.1659
  379GLU     C253420   1.053   5.145   6.231 -0.9717  1.0380  0.1976
  379GLU     C353421   1.064   5.231   6.358  0.0902  1.0061  1.2679
  379GLU     O153422   0.993   5.355   6.338 -1.2727 -0.2127  0.2681
  379GLU     C453423   0.905   5.365   6.230 -1.0244  0.4470  0.7233
  379GLU     C553424   0.861   5.521   6.236 -0.7801  1.1838  0.8640
  379GLU     C653425   0.722   5.547   6.173 -0.6820  1.0466  0.2339
  379GLU     C753426   0.661   5.684   6.216 -0.5019 -0.7797  0.3391
  379GLU     C853427   0.519   5.711   6.181 -0.1068  0.1078  0.2597
  379GLU     O253428   0.442   5.592   6.209 -0.7638  0.9185  0.2575
  379GLU     C953429   0.306   5.611   6.260  0.9045 -0.9682 -0.1709
  379GLU    C1053430   0.250   5.737   6.193  1.4605  0.0111 -0.4887
  379GLU    C1153431   0.328   5.864   6.215 -0.4432 -0.3258 -0.5202
  379GLU     O353432   0.464   5.826   6.237  0.4537 -0.6569 -1.1180
  379GLU     O453433   0.980   5.344   6.107  1.0301 -0.4753 -0.9033
  379GLU     H153434   1.175   5.278   6.125 -0.4350  1.9980  0.0494
  379GLU     H253435   1.119   5.059   6.216 -2.9099 -0.2244 -1.8228
  379GLU     H353436   0.958   5.091   6.218 -0.5741  0.4074 -0.1621
  379GLU     H453437   1.174   5.242   6.357 -0.0364  2.5165 -0.3676
  379GLU     H553438   0.829   5.286   6.227 -0.9698  0.4176 -0.9234
  379GLU     H653439   0.940   5.562   6.172  0.1574  0.1629  1.3140
  379GLU     H753440   0.885   5.557   6.337  1.6650 -1.0428  1.2031
  379GLU     H853441   0.669   5.463   6.221  1.4667 -0.8462 -0.5399
  379GLU     H953442   0.725   5.541   6.064 -2.4631  2.3015  0.0790
  379GLU    H1053443   0.733   5.762   6.189 -2.6644  0.7660 -1.2233
  379GLU    H1153444   0.669   5.701   6.324 -1.3726  0.2886  0.2450
  379GLU    H1253445   0.538   5.716   6.073  2.2315 -2.0740  0.4529
  379GLU    H1353446   0.303   5.610   6.369 -1.0395 -1.3896 -0.1963
  379GLU    H1453447   0.145   5.749   6.221  1.3962  1.3958 -1.1949
  379GLU    H1553448   0.241   5.704   6.089 -0.0410 -0.6570 -0.1616
  379GLU    H1653449   0.293   5.903   6.311  4.7916 -1.6746  2.2997
  380GLU     C153450   0.116   1.287   7.491  1.1391  1.2021  1.2252
  380GLU     C253451   7.734   1.263   7.475 -0.8572 -0.8042  0.2281
  380GLU     C353452   7.675   1.277   7.341  0.1791 -0.0044 -0.7445
  380GLU     O153453   7.716   1.412   7.308  0.7852  0.6613 -0.4046
  380GLU     C453454   0.086   1.434   7.301  0.3863  0.6512 -0.3733
  380GLU     C553455   0.142   1.563   7.252  0.9053  0.2374  1.0312
  380GLU     C653456   0.077   1.617   7.126  0.4312  0.4699  1.2622
  380GLU     C753457   0.080   1.528   6.989 -0.4092  0.5678 -0.3300
  380GLU     C853458   0.171   1.593   6.873 -0.2687  0.3275  0.1532
  380GLU     O253459   0.272   1.673   6.919  0.1528  0.0511  0.4749
  380GLU     C953460   0.368   1.597   6.986 -0.3326  0.5418 -0.0133
  380GLU    C1053461   0.442   1.515   6.888 -0.5097  0.2978  0.4918
  380GLU    C1153462   0.339   1.419   6.805  0.1498 -0.2403  0.0330
  380GLU     O353463   0.209   1.487   6.780 -1.1079  0.0122 -0.4631
  380GLU     O453464   0.135   1.420   7.444 -0.5244 -0.3389  0.7326
  380GLU     H153465   0.157   1.204   7.431 -0.3984  1.7731 -0.6906
  380GLU     H253466   7.684   1.330   7.546  0.0153 -0.3212  0.3920
  380GLU     H353467   7.716   1.160   7.510 -1.3305 -1.1058 -0.8485
  380GLU     H453468   7.730   1.197   7.288 -0.9449 -1.3719  0.0828
  380GLU     H553469   0.135   1.364   7.233 -0.2794  2.0752 -2.4155
  380GLU     H653470   0.244   1.549   7.217  0.9357  2.1761  0.1797
  380GLU     H753471   0.147   1.633   7.337  0.6157  0.3847  0.9314
  380GLU     H853472   0.100   1.723   7.107 -2.7196  1.2888  1.4754
  380GLU     H953473   7.734   1.621   7.145 -0.0077 -1.7747 -0.2751
  380GLU    H1053474   7.743   1.518   6.950 -0.4586  2.3900 -0.7598
  380GLU    H1153475   0.095   1.419   6.993  2.0105  0.8883  1.2976
  380GLU    H1253476   0.108   1.660   6.814 -2.5637 -0.7954  1.2062
  380GLU    H1353477   0.314   1.521   7.043  0.0349 -2.5079 -3.3585
  380GLU    H1453478   0.515   1.444   6.930 -0.9730 -0.6649 -0.2812
  380GLU    H1553479   0.509   1.574   6.823  3.5898 -3.0325  1.2126
  380GLU    H1653480   0.316   1.338   6.876 -0.5639 -1.2241 -1.2646
  381GLU     C153481   7.606   2.512   6.443  0.6261 -0.1487 -0.0316
  381GLU     C253482   7.690   2.416   6.537  0.3676  0.3168  0.2473
  381GLU     C353483   7.617   2.418   6.682  0.7425  0.6983 -0.1799
  381GLU     O153484   7.476   2.434   6.667  0.0730 -0.7554 -0.7156
  381GLU     C453485   7.426   2.551   6.599 -0.9070 -0.4218  0.0980
  381GLU     C553486   7.378   2.638   6.711  0.5452  0.0914  0.4630
  381GLU     C653487   7.251   2.592   6.789 -0.8303 -0.5997 -0.2141
  381GLU     C753488   7.257   2.471   6.875 -0.1669 -0.8117 -0.0642
  381GLU     C853489   7.151   2.359   6.836  0.4028 -0.8766  0.4981
  381GLU     O253490   7.182   2.290   6.712 -0.3964  0.4991  1.3571
  381GLU     C953491   7.243   2.164   6.741  0.0359  0.8827 -0.1190
  381GLU    C1053492   7.151   2.075   6.837 -0.7111  0.3354  0.8449
  381GLU    C1153493   7.043   2.154   6.911  0.7390 -0.1933  0.0822
  381GLU     O353494   7.120   2.271   6.949  0.1127  0.7313 -0.5697
  381GLU     O453495   7.537   2.610   6.523 -1.0453  0.1118 -0.3501
  381GLU     H153496   7.530   2.446   6.397 -0.4763 -0.5856  2.2767
  381GLU     H253497   0.027   2.453   6.532  1.2508 -1.9018  0.5522
  381GLU     H353498   7.689   2.308   6.517  0.7325  0.1591  1.0241
  381GLU     H453499   7.651   2.514   6.723  1.7807  0.5301 -0.6031
  381GLU     H553500   7.346   2.516   6.534  0.5059  0.2690 -2.1210
  381GLU     H653501   7.358   2.742   6.683  3.7448  0.5404 -0.5484
  381GLU     H753502   7.456   2.670   6.781 -1.8009  1.4009  2.6772
  381GLU     H853503   7.176   2.594   6.709 -0.8692  3.3693 -0.2648
  381GLU     H953504   7.209   2.666   6.858 -0.7437 -1.7038  1.0603
  381GLU    H1053505   7.220   2.485   6.977  2.7501  1.0281  0.8645
  381GLU    H1153506   7.354   2.420   6.863  0.4354  0.2893 -0.0208
  381GLU    H1253507   7.062   2.421   6.819  0.5593  0.8985  4.8041
  381GLU    H1353508   7.336   2.165   6.798 -0.1789  1.4079  0.2271
  381GLU    H1453509   7.211   2.042   6.923 -2.7555  0.8304  2.5677
  381GLU    H1553510   7.118   1.989   6.777  1.4805  2.4281 -3.8734
  381GLU    H1653511   6.950   2.161   6.854 -0.8388 -3.2504  2.0191
  382GLU     C153512   3.276   1.345   5.699  0.9807 -0.6750 -0.5121
  382GLU     C253513   3.407   1.423   5.742 -1.8197  0.2158  0.5726
  382GLU     C353514   3.457   1.544   5.661  1.2540 -0.0637 -0.8677
  382GLU     O153515   3.436   1.515   5.520 -0.1554 -0.8165 -0.2850
  382GLU     C453516   3.304   1.472   5.492 -0.8683  0.9721  0.2854
  382GLU     C553517   3.277   1.444   5.345 -1.0570 -0.4229 -0.6923
  382GLU     C653518   3.133   1.489   5.318  0.6357  0.1172 -0.9434
  382GLU     C753519   3.049   1.414   5.209  0.6068 -0.0431 -0.9434
  382GLU     C853520   2.914   1.480   5.199  0.8405  1.0271  0.0155
  382GLU     O253521   2.941   1.600   5.113 -0.5484 -0.3776  0.2639
  382GLU     C953522   2.825   1.684   5.084  1.0132 -0.6715 -0.3600
  382GLU    C1053523   2.721   1.590   5.022 -0.0995 -0.6257 -0.7705
  382GLU    C1153524   2.697   1.441   5.088 -0.7698 -0.3095 -0.7386
  382GLU     O353525   2.823   1.390   5.126 -0.5523  0.4225 -0.4844
  382GLU     O453526   3.289   1.352   5.556  0.6534  0.6786  0.0169
  382GLU     H153527   3.294   1.240   5.724 -0.0730 -1.2654 -2.0944
  382GLU     H253528   3.481   1.343   5.751 -1.2442  0.9578  3.0572
  382GLU     H353529   3.414   1.457   5.846 -1.3739  1.0102  0.2879
  382GLU     H453530   3.391   1.624   5.697 -1.2071 -1.7744 -1.3290
  382GLU     H553531   3.243   1.543   5.551 -4.6589 -2.8248  1.4436
  382GLU     H653532   3.275   1.336   5.329 -1.1520 -0.6301  0.6551
  382GLU     H753533   3.344   1.480   5.266  1.2691  2.7011  2.3763
  382GLU     H853534   3.140   1.593   5.283  1.7318 -0.5930 -2.9726
  382GLU     H953535   3.076   1.492   5.412 -0.3590  2.7171 -1.5208
  382GLU    H1053536   3.049   1.306   5.227  2.2766 -0.6557 -3.9230
  382GLU    H1153537   3.107   1.451   5.124 -0.7768  1.2806 -1.3699
  382GLU    H1253538   2.880   1.508   5.299 -0.2777 -2.0779  0.6088
  382GLU    H1353539   2.792   1.725   5.180 -1.1053  4.1683 -2.8086
  382GLU    H1453540   2.744   1.575   4.916 -0.7485 -2.7570 -0.6532
  382GLU    H1553541   2.623   1.639   5.029  0.4034  0.2121  1.2846
  382GLU    H1653542   2.649   1.453   5.186 -1.8939  0.9676 -1.4015
  383GLU     C153543   4.989   0.840   3.778  0.3117  0.7152  0.6214
  383GLU     C253544   5.022   0.881   3.919 -0.8180 -0.6460  1.2162
  383GLU     C353545   4.906   0.889   4.016 -1.0768 -0.0430  1.1556
  383GLU     O153546   4.833   0.766   4.020  0.4396  0.4963  0.1900
  383GLU     C453547   4.835   0.693   3.902  0.9665  1.1699  1.0609
  383GLU     C553548   4.689   0.630   3.890  0.8796  0.0629 -0.7883
  383GLU     C653549   4.648   0.508   3.980  0.5751  0.0703 -1.0755
  383GLU     C753550   4.542   0.415   3.922 -0.3349  0.6186  0.4291
  383GLU     C853551   4.409   0.392   4.003 -0.4081 -0.2021  1.4619
  383GLU     O253552   4.308   0.440   3.916  1.0326  0.1292 -0.3291
  383GLU     C953553   4.166   0.415   3.946  0.3026  0.2833  0.2425
  383GLU    C1053554   4.180   0.265   3.943  0.5841  0.3631 -0.6297
  383GLU    C1153555   4.259   0.215   4.061  0.7088  0.3258  0.0601
  383GLU     O353556   4.394   0.255   4.039  0.5705 -0.8165  0.0669
  383GLU     O453557   4.861   0.765   3.782 -0.2424 -0.0325 -0.2307
  383GLU     H153558   4.978   0.937   3.727 -2.7797 -0.0314 -0.3106
  383GLU     H253559   5.104   0.823   3.964  0.6815  0.6215  0.2045
  383GLU     H353560   5.081   0.972   3.934 -1.7699  0.1177  0.3962
  383GLU     H453561   4.847   0.968   3.967  1.3827  0.7644 -0.7323
  383GLU     H553562   4.912   0.615   3.909  0.1056  0.1497 -0.2779
  383GLU     H653563   4.653   0.613   3.788  1.5964 -1.3703 -0.8208
  383GLU     H753564   4.617   0.708   3.918  1.2956  0.3888 -0.6192
  383GLU     H853565   4.621   0.546   4.079 -0.1445  2.4572 -2.0960
  383GLU     H953566   4.737   0.447   3.998 -1.6704 -3.7327 -1.7729
  383GLU    H1053567   4.586   0.315   3.909  2.9059  2.2680 -2.8389
  383GLU    H1153568   4.524   0.432   3.815  2.4459  0.4526 -0.1302
  383GLU    H1253569   4.415   0.460   4.088 -0.5870  1.1226  0.4545
  383GLU    H1353570   4.150   0.446   4.050 -1.3656 -0.3840  0.2138
  383GLU    H1453571   4.223   0.240   3.845 -0.5031 -0.9749 -0.7956
  383GLU    H1553572   4.091   0.201   3.944  1.6274 -1.1617  0.9511
  383GLU    H1653573   4.225   0.255   4.157 -1.9127  1.7995 -1.3604
  384GLU     C153574   0.785   5.375   3.490 -0.6313 -0.0919  0.6226
  384GLU     C253575   0.877   5.337   3.363 -0.1390 -0.3973 -0.5940
  384GLU     C353576   0.783   5.237   3.286  0.2118  0.2320  1.4566
  384GLU     O153577   0.678   5.321   3.236  0.3194  0.0507 -0.0444
  384GLU     C453578   0.596   5.397   3.341  0.1525  0.0678 -1.0764
  384GLU     C553579   0.474   5.311   3.380  0.3050 -0.2428 -0.0866
  384GLU     C653580   0.369   5.310   3.271  0.2240 -0.6593  1.1444
  384GLU     C753581   0.228   5.282   3.314  0.4753 -0.4241 -0.4682
  384GLU     C853582   0.126   5.280   3.194 -0.3437  0.2768  0.3978
  384GLU     O253583   0.117   5.159   3.129  0.2968 -0.1991  0.3540
  384GLU     C953584   0.046   5.164   3.000 -0.5614 -0.3229 -0.7557
  384GLU    C1053585   7.670   5.220   3.026 -0.2693  0.7631 -0.8302
  384GLU    C1153586   7.657   5.329   3.136  0.5103  0.0512 -0.1912
  384GLU     O353587   7.761   5.306   3.240 -0.0307  0.5268 -0.2059
  384GLU     O453588   0.670   5.443   3.454 -0.0245  0.0323 -0.1379
  384GLU     H153589   0.760   5.278   3.534  0.1925 -0.6143 -0.0216
  384GLU     H253590   0.971   5.291   3.395  0.2719  3.1305  4.4790
  384GLU     H353591   0.897   5.416   3.289  0.5844 -1.1657 -1.2339
  384GLU     H453592   0.738   5.159   3.349 -1.7809  0.9342  1.0052
  384GLU     H553593   0.556   5.488   3.295  2.0036  1.4613 -0.0879
  384GLU     H653594   0.425   5.350   3.470  2.2329 -0.4185  1.1140
  384GLU     H753595   0.515   5.211   3.398  1.4255  0.2296  0.0926
  384GLU     H853596   0.391   5.234   3.195 -0.6360 -0.3411  0.5666
  384GLU     H953597   0.368   5.407   3.220 -0.9493 -0.7736  0.9196
  384GLU    H1053598   0.193   5.361   3.380  1.0333 -2.4981  2.5084
  384GLU    H1153599   0.226   5.185   3.365  0.9742 -0.5624 -0.7070
  384GLU    H1253600   0.150   5.363   3.128  2.3868  0.7771  1.8899
  384GLU    H1353601   0.104   5.231   2.935 -1.5837  2.1132  0.6953
  384GLU    H1453602   7.587   5.153   3.050  1.8009 -1.0352  1.8352
  384GLU    H1553603   7.653   5.272   2.930  0.0437  1.3089 -0.5951
  384GLU    H1653604   7.686   5.425   3.092 -0.8611  0.3016 -0.5831
  385GLU     C153605   2.825   1.486   1.227  0.3382 -0.1918  0.1771
  385GLU     C253606   2.676   1.464   1.257  0.5122 -0.1976 -0.5080
  385GLU     C353607   2.609   1.594   1.302 -1.0198  0.0599  0.7768
  385GLU     O153608   2.705   1.691   1.338 -0.4337 -0.1783  0.8011
  385GLU     C453609   2.781   1.730   1.223  0.2355 -0.2074 -0.0508
  385GLU     C553610   2.864   1.864   1.226  0.9910  0.0092  0.1313
  385GLU     C653611   2.774   1.986   1.246  0.1174 -0.6352  0.0933
  385GLU     C753612   2.855   2.119   1.221 -0.4952 -0.5166 -0.2887
  385GLU     C853613   2.830   2.239   1.315  0.6489  0.2962  0.2376
  385GLU     O253614   2.940   2.337   1.317  1.8680  0.8004  0.7723
  385GLU     C953615   2.914   2.453   1.392 -0.5505  0.4809 -0.1684
  385GLU    C1053616   2.794   2.518   1.331 -0.5489 -0.6764 -0.0351
  385GLU    C1153617   2.676   2.427   1.339  0.2459  0.1738 -0.5222
  385GLU     O353618   2.706   2.302   1.279 -0.9951 -0.0120 -0.3602
  385GLU     O453619   2.854   1.618   1.169 -0.4625 -0.6502  0.6357
  385GLU     H153620   2.872   1.476   1.325 -1.3978 -0.1421  1.0542
  385GLU     H253621   2.657   1.379   1.324  0.5703  0.4242  0.3093
  385GLU     H353622   2.620   1.430   1.168  1.5671 -0.2479 -1.1721
  385GLU     H453623   2.550   1.629   1.216 -0.1351  0.5479  0.3510
  385GLU     H553624   2.709   1.755   1.145 -0.1329  1.4607  0.7956
  385GLU     H653625   2.904   1.882   1.125  0.2773 -1.2562 -0.4134
  385GLU     H753626   2.944   1.859   1.301  1.3434 -0.8061 -0.2798
  385GLU     H853627   2.724   1.988   1.344  0.5179  1.6511  0.3120
  385GLU     H953628   2.676   1.975   1.198  0.6550  0.2437 -1.2665
  385GLU    H1053629   2.852   2.159   1.119 -0.4880  3.6398  1.1680
  385GLU    H1153630   2.958   2.094   1.250 -1.2925 -2.3198  1.2315
  385GLU    H1253631   2.824   2.207   1.420  0.5831 -0.3558  0.0400
  385GLU    H1353632   2.893   2.416   1.493 -0.0203  2.7969  0.8432
  385GLU    H1453633   2.803   2.568   1.235  2.8053 -1.2869 -0.1498
  385GLU    H1553634   2.767   2.606   1.391 -2.1024 -0.1905 -1.3590
  385GLU    H1653635   2.659   2.418   1.447  2.7436  2.0478  0.1394
  386GLU     C153636   4.892   0.550   7.068  0.8055 -0.1699 -0.3762
  386GLU     C253637   4.828   0.489   7.200 -0.0118 -0.0616  0.7402
  386GLU     C353638   4.819   0.576   7.322  0.4130 -0.1925  0.1455
  386GLU     O153639   4.820   0.717   7.283  1.4121  0.6216  0.5148
  386GLU     C453640   4.760   0.765   7.158  0.0982 -0.3388 -0.1559
  386GLU     C553641   4.747   0.921   7.139 -0.5326  0.2727  0.9017
  386GLU     C653642   4.625   0.964   7.046  0.3260  0.7079 -0.9653
  386GLU     C753643   4.598   1.116   7.014 -0.8350 -0.6283  0.5709
  386GLU     C853644   4.451   1.143   6.973 -0.0866 -0.7342  0.4391
  386GLU     O253645   4.363   1.110   7.079 -0.0176 -0.3569  1.2089
  386GLU     C953646   4.224   1.118   7.029  0.2190  0.8222  0.0339
  386GLU    C1053647   4.195   1.264   6.972  0.1933 -0.4346  0.2887
  386GLU    C1153648   4.328   1.351   6.997  1.8334 -0.0164 -1.3048
  386GLU     O353649   4.435   1.281   6.932  0.3731 -0.0013 -0.7054
  386GLU     O453650   4.829   0.689   7.050 -0.3390 -1.0471 -0.2177
  386GLU     H153651   5.000   0.563   7.073  0.8188 -0.7192  1.3946
  386GLU     H253652   4.870   0.392   7.227 -0.1060 -1.5888 -3.7137
  386GLU     H353653   4.727   0.476   7.160  0.4804  0.1300 -0.6349
  386GLU     H453654   4.723   0.551   7.370  1.2063 -0.8668  1.4382
  386GLU     H553655   4.662   0.719   7.172 -0.3643  1.4941  4.8465
  386GLU     H653656   4.839   0.944   7.084 -0.5582 -1.1290  0.2152
  386GLU     H753657   4.755   0.966   7.238 -1.4233  3.9054 -0.5353
  386GLU     H853658   4.532   0.934   7.095 -0.2007  0.3906 -2.1296
  386GLU     H953659   4.625   0.907   6.952  0.1227  1.0407 -1.1712
  386GLU    H1053660   4.678   1.158   6.951  1.8117 -1.9750  2.7953
  386GLU    H1153661   4.612   1.161   7.113  0.0756  0.9436 -0.2392
  386GLU    H1253662   4.434   1.071   6.891 -0.0436 -0.7259  0.4231
  386GLU    H1353663   4.203   1.046   6.949 -1.0113  1.5375 -0.2989
  386GLU    H1453664   4.107   1.311   7.018 -1.9512 -0.3038 -3.5472
  386GLU    H1553665   4.172   1.254   6.865  1.9901  2.6090 -0.5197
  386GLU    H1653666   4.348   1.344   7.105 -1.1053  0.2520 -0.6639
  387GLU     C153667   0.144   1.277   0.308 -1.8283 -0.3096  0.7620
  387GLU     C253668   0.091   1.130   0.273 -0.4749  0.9114 -1.7703
  387GLU     C353669   0.195   1.016   0.275 -0.7054  0.7918 -0.1773
  387GLU     O153670   0.323   1.053   0.321 -0.8498 -0.1747  0.7353
  387GLU     C453671   0.321   1.143   0.440 -0.7470  1.3532  0.5748
  387GLU     C553672   0.470   1.161   0.461  0.0750 -0.3180 -0.7256
  387GLU     C653673   0.549   1.038   0.478 -0.1064 -0.3227 -0.4485
  387GLU     C753674   0.607   0.979   0.342  0.9307 -0.3152  0.2951
  387GLU     C853675   0.716   0.874   0.363 -0.1077 -0.1013 -0.5393
  387GLU     O253676   0.746   0.794   0.252 -0.2069  0.3229  0.6533
  387GLU     C953677   0.818   0.678   0.306 -0.9031  1.2425 -0.5268
  387GLU    C1053678   0.947   0.747   0.381  0.9302  0.1566 -0.5288
  387GLU    C1153679   0.922   0.866   0.481  1.2956  0.5852 -0.4226
  387GLU     O353680   0.843   0.950   0.393  0.2936  0.1561  0.5658
  387GLU     O453681   0.265   1.271   0.398 -0.4789 -0.9028  0.6424
  387GLU     H153682   0.181   1.312   0.211 -2.2989 -3.2684 -0.5839
  387GLU     H253683   0.063   1.136   0.167  0.6461  2.0743 -2.0244
  387GLU     H353684   0.001   1.109   0.332  1.1308 -4.2114 -0.6562
  387GLU     H453685   0.217   0.990   0.171  3.2396 -3.6164  1.4340
  387GLU     H553686   0.262   1.104   0.524  0.9070  1.8109  2.0009
  387GLU     H653687   0.482   1.228   0.547 -0.8072 -1.1964  0.1040
  387GLU     H753688   0.520   1.220   0.383  0.9701 -0.1943 -0.0715
  387GLU     H853689   0.477   0.967   0.521 -1.7163  1.0704 -0.7320
  387GLU     H953690   0.635   1.051   0.544  1.2541  0.1483 -2.2489
  387GLU    H1053691   0.654   1.066   0.295  1.5623 -0.8085 -0.0065
  387GLU    H1153692   0.531   0.933   0.277 -2.3197 -1.2022  4.2886
  387GLU    H1253693   0.677   0.820   0.450  2.2294 -0.6590  0.2384
  387GLU    H1353694   0.762   0.626   0.385 -0.7085  1.1326 -0.4602
  387GLU    H1453695   1.017   0.783   0.305  1.1636 -1.3867 -1.0882
  387GLU    H1553696   0.990   0.673   0.450  0.4809  3.3776  3.5557
  387GLU    H1653697   0.852   0.823   0.553  0.9603  0.7862 -0.6285
  388GLU     C153698   6.468   4.045   1.289  0.0602 -0.1667  0.4282
  388GLU     C253699   6.609   4.095   1.309  0.9496  0.0130 -0.4799
  388GLU     C353700   6.643   4.133   1.457 -0.6965 -0.7267  0.0087
  388GLU     O153701   6.574   4.056   1.550  0.0622  0.6183  0.3610
  388GLU     C453702   6.458   3.969   1.508  0.1679 -0.3938 -1.2266
  388GLU     C553703   6.363   3.941   1.624 -0.3451 -0.0514  1.3579
  388GLU     C653704   6.270   3.816   1.594  0.6135 -0.2623  0.2214
  388GLU     C753705   6.138   3.835   1.520  0.7272  0.1791 -0.7113
  388GLU     C853706   6.036   3.717   1.507 -1.2321 -0.1097  0.1508
  388GLU     O253707   5.906   3.769   1.485 -0.7282 -1.2350 -0.6467
  388GLU     C953708   5.806   3.665   1.517 -0.7812 -0.4796  0.9115
  388GLU    C1053709   5.819   3.574   1.396 -0.1163  0.8510 -0.2465
  388GLU    C1153710   5.968   3.522   1.384 -1.5372  0.3474 -0.2503
  388GLU     O353711   6.071   3.615   1.408  0.4646  0.5214 -0.9397
  388GLU     O453712   6.398   4.048   1.410 -0.6484 -0.2357  0.2942
  388GLU     H153713   6.410   4.113   1.226  1.8967 -1.4321 -2.9239
  388GLU     H253714   6.590   4.196   1.269 -1.6136 -0.4347 -0.6110
  388GLU     H353715   6.696   4.055   1.256  0.0585 -1.5662 -0.7928
  388GLU     H453716   6.637   4.239   1.483 -0.2454 -1.2350  2.4625
  388GLU     H553717   6.494   3.879   1.457  3.5191  0.7599 -1.1005
  388GLU     H653718   6.296   4.025   1.645  0.2648  1.2733 -1.5163
  388GLU     H753719   6.423   3.910   1.710  1.6680  3.3496  1.3315
  388GLU     H853720   6.239   3.764   1.685 -0.0861  0.9522  0.6985
  388GLU     H953721   6.328   3.750   1.528 -0.8590 -4.6370  2.8840
  388GLU    H1053722   6.156   3.872   1.418  0.8369 -2.1185 -1.5934
  388GLU    H1153723   6.090   3.915   1.579 -2.1624 -1.0114 -1.2954
  388GLU    H1253724   6.040   3.662   1.601  2.4467  0.5602  0.5387
  388GLU    H1353725   5.825   3.602   1.604  1.8868 -1.6886 -0.4341
  388GLU    H1453726   5.781   3.622   1.305  0.6599 -0.3306 -1.2249
  388GLU    H1553727   5.763   3.480   1.393  2.1277 -0.5393 -1.6419
  388GLU    H1653728   5.982   3.448   1.463 -1.9702  0.5578  0.0265
  389GLU     C153729   2.720   5.861   4.832 -0.2544 -1.5912 -0.5028
  389GLU     C253730   2.805   5.740   4.786 -0.9343  0.9642 -1.0768
  389GLU     C353731   2.782   5.608   4.848 -0.0063 -0.4742 -0.8590
  389GLU     O153732   2.787   5.617   4.992  0.4792 -0.0057  0.6750
  389GLU     C453733   2.712   5.728   5.054 -0.4456  0.3969  0.5445
  389GLU     C553734   2.747   5.737   5.210 -0.3817 -0.5305  0.1536
  389GLU     C653735   2.648   5.799   5.310  0.1784 -0.7435 -0.6892
  389GLU     C753736   2.668   5.793   5.469 -0.5851 -0.5116  0.1471
  389GLU     C853737   2.565   5.876   5.551  1.3804 -0.4823  1.1393
  389GLU     O253738   2.440   5.834   5.499 -0.3803 -0.0275 -0.2146
  389GLU     C953739   2.326   5.924   5.521  1.3419 -1.1300  0.2338
  389GLU    C1053740   2.355   6.023   5.644  0.5760 -0.0734  0.2877
  389GLU    C1153741   2.433   5.946   5.757  0.2898  0.0325 -1.1842
  389GLU     O353742   2.563   5.891   5.698 -0.4983 -0.0860  0.4889
  389GLU     O453743   2.717   5.855   4.983 -0.5138  0.0830  0.1174
  389GLU     H153744   2.622   5.850   4.785 -0.7951  1.6545 -0.3584
  389GLU     H253745   2.909   5.756   4.816 -1.7975 -2.2020  5.1277
  389GLU     H353746   2.811   5.733   4.677  2.6758 -3.5715 -0.9325
  389GLU     H453747   2.675   5.586   4.835  0.3907 -2.3765 -1.2298
  389GLU     H553748   2.611   5.687   5.040 -0.7194  0.3640  2.4180
  389GLU     H653749   2.844   5.788   5.204 -0.7332  0.2221  0.6183
  389GLU     H753750   2.760   5.632   5.237 -0.8424 -1.2415 -2.1444
  389GLU     H853751   2.557   5.745   5.281 -2.0603  1.2515  2.0749
  389GLU     H953752   2.634   5.899   5.268  0.8890 -0.6792 -0.7848
  389GLU    H1053753   2.765   5.830   5.506 -1.6264  1.7378  0.8249
  389GLU    H1153754   2.669   5.684   5.480  0.8407 -0.4456  0.9536
  389GLU    H1253755   2.586   5.969   5.498 -1.0503 -0.7529 -0.4634
  389GLU    H1353756   2.229   5.875   5.530  1.9172 -2.0692  1.6143
  389GLU    H1453757   2.263   6.073   5.675 -0.4586 -2.4526  1.2984
  389GLU    H1553758   2.422   6.101   5.604  0.1964 -0.2266 -0.6779
  389GLU    H1653759   2.374   5.854   5.767  2.9258 -1.6328  0.2124
  390GLU     C153760   5.810   0.955   1.903  0.0147  0.4340  0.0460
  390GLU     C253761   5.728   0.855   1.997 -0.9855  0.6138  0.0105
  390GLU     C353762   5.662   0.737   1.933 -0.3584 -0.5940 -1.2663
  390GLU     O153763   5.701   0.723   1.795 -0.6612  0.4879  0.7488
  390GLU     C453764   5.839   0.754   1.752  0.2497  0.1839  0.1597
  390GLU     C553765   5.893   0.743   1.594 -0.8199 -0.1889 -0.5343
  390GLU     C653766   5.942   0.606   1.514  0.4209  0.2106 -0.0210
  390GLU     C753767   6.091   0.594   1.453  0.5708  0.1615 -0.5799
  390GLU     C853768   6.120   0.472   1.348 -0.8839  0.0760 -1.2965
  390GLU     O253769   6.138   0.509   1.209  0.0952 -0.0313  0.3222
  390GLU     C953770   6.208   0.431   1.112 -0.1042 -0.1722 -0.1720
  390GLU    C1053771   6.287   0.320   1.172 -0.5907  0.7143 -0.9910
  390GLU    C1153772   6.324   0.330   1.314  0.9484 -0.5046 -0.4635
  390GLU     O353773   6.209   0.368   1.396 -0.0150 -0.0455 -0.1089
  390GLU     O453774   5.858   0.896   1.782 -0.3295  0.2248  0.2412
  390GLU     H153775   5.900   0.973   1.963  0.0555 -2.0269  0.8289
  390GLU     H253776   5.674   0.908   2.077  0.9867  1.0191  1.1375
  390GLU     H353777   5.798   0.806   2.066 -1.0013 -0.6336 -0.8331
  390GLU     H453778   5.682   0.637   1.972 -3.3936 -0.5505  0.6740
  390GLU     H553779   5.904   0.693   1.816  3.9778  3.8588  0.3186
  390GLU     H653780   5.989   0.791   1.613 -0.8907 -0.1561 -0.2624
  390GLU     H753781   5.844   0.808   1.520  1.9736  2.9776  0.2038
  390GLU     H853782   5.881   0.588   1.425 -1.7448 -1.7875  1.7534
  390GLU     H953783   5.932   0.522   1.584  0.1856 -1.4065 -1.9297
  390GLU    H1053784   6.176   0.588   1.522 -0.1083  1.6568  0.4456
  390GLU    H1153785   6.110   0.697   1.418  0.4553 -0.6415 -3.2443
  390GLU    H1253786   6.023   0.420   1.351 -0.0142 -1.7654  4.0353
  390GLU    H1353787   6.143   0.389   1.034 -0.2292  0.1512 -0.2435
  390GLU    H1453788   6.369   0.289   1.106  4.8907 -0.3721  5.3259
  390GLU    H1553789   6.240   0.222   1.159 -0.9578  0.6931  0.4025
  390GLU    H1653790   6.378   0.420   1.345 -0.1730  0.4320 -1.1402
  391GLU     C153791   1.295   0.389   4.295 -0.3951  0.9245  0.4876
  391GLU     C253792   1.344   0.377   4.440  0.3369 -0.0547  0.4198
  391GLU     C353793   1.260   0.455   4.550  1.6931 -0.3443  0.3585
  391GLU     O153794   1.129   0.397   4.518  0.2808 -0.6830 -0.3461
  391GLU     C453795   1.071   0.435   4.392 -0.0216 -0.5685  0.2757
  391GLU     C553796   0.950   0.536   4.425 -0.6112 -1.6630 -0.3543
  391GLU     C653797   0.943   0.603   4.570 -0.1121 -0.3023 -0.2906
  391GLU     C753798   0.867   0.735   4.610  0.6585 -0.5475  0.6986
  391GLU     C853799   0.878   0.779   4.755 -0.5327  1.1158 -0.8597
  391GLU     O253800   0.922   0.915   4.742 -0.1013 -0.6841 -0.2179
  391GLU     C953801   0.826   1.029   4.766  0.5239  2.2878  0.8073
  391GLU    C1053802   0.769   1.008   4.905  0.4157 -0.1988 -0.7458
  391GLU    C1153803   0.756   0.866   4.952 -0.8441  1.4177  0.7450
  391GLU     O353804   0.754   0.767   4.829 -1.2476 -1.3832 -0.5175
  391GLU     O453805   1.177   0.482   4.311  0.4282 -0.1521 -0.0227
  391GLU     H153806   1.249   0.298   4.255 -1.6277  1.8889 -0.4029
  391GLU     H253807   1.449   0.408   4.447  0.0550  0.7120  1.4988
  391GLU     H353808   1.361   0.280   4.487 -0.7566 -0.2449  0.4441
  391GLU     H453809   1.261   0.563   4.531 -0.5778 -0.3254  0.0455
  391GLU     H553810   1.024   0.343   4.353 -1.2052  1.4624 -3.6225
  391GLU     H653811   0.868   0.466   4.406 -0.5354 -2.5149  2.0964
  391GLU     H753812   0.945   0.613   4.348  3.2978 -0.6078  0.1953
  391GLU     H853813   1.048   0.620   4.598  0.0123 -1.9894  0.3595
  391GLU     H953814   0.908   0.533   4.647  0.7139  0.8036  1.1530
  391GLU    H1053815   0.760   0.727   4.587  1.0909 -2.8063 -0.8170
  391GLU    H1153816   0.927   0.795   4.541  2.6148 -1.0873  1.8370
  391GLU    H1253817   0.949   0.710   4.802 -3.2760 -1.2865  0.1114
  391GLU    H1353818   0.748   0.991   4.699 -0.4823 -3.0845  4.4038
  391GLU    H1453819   0.671   1.051   4.883 -0.3799 -0.5320  1.7797
  391GLU    H1553820   0.809   1.073   4.984 -4.0810  1.1694  0.7360
  391GLU    H1653821   0.841   0.846   5.018  1.0266  1.3157 -1.5752
  392GLU     C153822   5.723   5.355   6.138 -1.5162 -0.5558 -0.1401
  392GLU     C253823   5.766   5.203   6.145 -0.4778 -0.0211 -0.4520
  392GLU     C353824   5.745   5.118   6.011 -0.5585  0.3453  0.0139
  392GLU     O153825   5.605   5.155   5.978 -1.2605 -0.8084  2.0584
  392GLU     C453826   5.602   5.287   5.930  0.2774 -0.8123 -0.2915
  392GLU     C553827   5.470   5.307   5.853  0.7354 -0.3547  0.8869
  392GLU     C653828   5.465   5.216   5.727  0.8525 -0.3573 -0.0941
  392GLU     C753829   5.331   5.220   5.648 -0.6758  0.5514  0.2689
  392GLU     C853830   5.329   5.176   5.498 -1.5281 -1.1022 -0.7812
  392GLU     O253831   5.202   5.161   5.452 -0.1476  0.2775 -0.2238
  392GLU     C953832   5.202   5.107   5.314  0.1123 -0.4993 -0.0607
  392GLU    C1053833   5.311   5.163   5.223  0.2040  0.0028  0.4394
  392GLU    C1153834   5.443   5.201   5.299 -0.3144 -1.3151 -0.6035
  392GLU     O353835   5.405   5.265   5.418  0.3578  0.1805 -0.3807
  392GLU     O453836   5.605   5.362   6.055  0.3628 -0.8367 -1.0112
  392GLU     H153837   5.805   5.404   6.083 -0.8961  0.5847  1.7077
  392GLU     H253838   5.701   5.155   6.219 -0.4308 -1.3967 -1.2523
  392GLU     H353839   5.873   5.196   6.169  0.5610  1.1182 -4.0539
  392GLU     H453840   5.811   5.149   5.930 -0.5345 -3.7484 -1.7521
  392GLU     H553841   5.690   5.318   5.874 -0.7171  0.1788 -1.3714
  392GLU     H653842   5.486   5.412   5.825  3.4973 -0.4786  1.7110
  392GLU     H753843   5.393   5.270   5.921 -3.4880  0.6681 -2.8589
  392GLU     H853844   5.504   5.116   5.747  1.5549  0.2574  1.9432
  392GLU     H953845   5.536   5.262   5.658 -0.3835  1.5973 -0.1453
  392GLU    H1053846   5.298   5.325   5.649 -5.6001 -0.7320  0.0322
  392GLU    H1153847   5.255   5.155   5.693  1.7235 -1.1295  2.1582
  392GLU    H1253848   5.378   5.078   5.503  0.2029 -0.2090  2.7457
  392GLU    H1353849   5.228   5.002   5.331  1.3111 -0.3034 -0.5335
  392GLU    H1453850   5.273   5.254   5.175  2.0592  0.4425 -0.2736
  392GLU    H1553851   5.324   5.088   5.144 -0.8407  1.1502 -0.8887
  392GLU    H1653852   5.510   5.119   5.325  0.7533 -0.6635 -1.2500
  393GLU     C153853   2.277   3.150   0.351 -0.6310 -0.0991 -0.2108
  393GLU     C253854   2.306   3.229   0.486  0.8175 -0.0310  0.5946
  393GLU     C353855   2.454   3.259   0.513  0.7639 -1.0191 -0.1583
  393GLU     O153856   2.495   3.329   0.395  0.8743 -0.7686 -0.0070
  393GLU     C453857   2.460   3.281   0.262  0.8122  0.2122  0.0441
  393GLU     C553858   2.579   3.266   0.179 -0.9726 -0.8276  0.7706
  393GLU     C653859   2.577   3.328   0.029  0.5890  0.5128 -0.2826
  393GLU     C753860   2.705   3.323   8.044 -0.1328  0.7691 -1.2871
  393GLU     C853861   2.711   3.401   7.906  0.2661  0.2444  0.4936
  393GLU     O253862   2.766   3.530   7.920  0.3117 -0.6450 -0.6412
  393GLU     C953863   2.825   3.605   7.818 -0.1575  0.2472 -0.0855
  393GLU    C1053864   2.824   3.535   7.682  0.2328  0.8518  0.7823
  393GLU    C1153865   2.797   3.380   7.683  0.0940  0.3350  0.2526
  393GLU     O353866   2.797   3.323   7.817  0.3151 -0.5270  0.2709
  393GLU     O453867   2.392   3.149   0.265 -0.1088 -0.0397 -0.4073
  393GLU     H153868   2.253   3.046   0.378 -0.1797  0.2172  1.5298
  393GLU     H253869   2.283   3.148   0.557 -0.3676 -0.4018 -0.1771
  393GLU     H353870   2.249   3.322   0.500 -0.5009 -0.1455 -2.9246
  393GLU     H453871   2.513   3.167   0.527 -0.2883 -1.4203  1.9556
  393GLU     H553872   2.390   3.352   0.215  0.7378 -1.2598 -2.2154
  393GLU     H653873   2.648   3.182   0.194  0.2485  0.1612  0.8467
  393GLU     H753874   2.652   3.343   0.206 -2.6632  1.9712 -2.0453
  393GLU     H853875   2.558   3.434   0.046 -1.6021  0.2804 -0.9557
  393GLU     H953876   2.499   3.283   8.063 -0.4642  0.7898  0.7963
  393GLU    H1053877   2.722   3.218   8.018 -2.3309 -0.8233  2.8270
  393GLU    H1153878   2.795   3.353   0.002  0.1602 -0.7381 -0.9104
  393GLU    H1253879   2.619   3.401   7.847  1.3931 -3.0287 -1.5151
  393GLU    H1353880   2.749   3.681   7.797 -1.5962 -1.2104 -0.4554
  393GLU    H1453881   2.916   3.565   7.630  0.5154  0.6391  1.1514
  393GLU    H1553882   2.741   3.573   7.622  2.0527  2.8589 -0.6128
  393GLU    H1653883   2.697   3.356   7.646 -0.3553  3.6975 -1.0392
  394GLU     C153884   5.690   0.021   6.858  0.5327  0.4721 -0.3210
  394GLU     C253885   5.639   0.157   6.820  0.1021 -0.0263 -1.4751
  394GLU     C353886   5.666   0.272   6.919 -0.3290 -0.2735  0.3621
  394GLU     O153887   5.644   0.219   7.047 -0.7579  0.6432 -0.4705
  394GLU     C453888   5.699   0.093   7.096  0.4100 -0.2449 -0.7598
  394GLU     C553889   5.634   0.026   7.227  0.2590  1.2545 -0.1422
  394GLU     C653890   5.636   0.096   7.359 -0.4920 -0.8298 -0.1855
  394GLU     C753891   5.748   0.070   7.474  0.2550  0.3080 -0.7402
  394GLU     C853892   5.704   0.143   7.598 -0.1686  0.8624 -0.7865
  394GLU     O253893   5.756   0.065   7.721  0.2386  0.2910  0.9553
  394GLU     C953894   5.877   0.115   7.777 -0.3749  1.0374  0.0042
  394GLU    C1053895   5.843   0.259   7.825 -0.2382 -0.6541  0.9183
  394GLU    C1153896   5.756   0.351   7.730  0.7561 -0.4348  0.3154
  394GLU     O353897   5.746   0.284   7.597 -0.7013  0.0733 -0.4339
  394GLU     O453898   5.663   7.684   6.992 -0.9234  0.4176 -0.2481
  394GLU     H153899   5.795   0.001   6.835  1.2219  3.0247  0.2971
  394GLU     H253900   5.530   0.148   6.814 -0.1338  1.7272 -0.4530
  394GLU     H353901   5.662   0.188   6.717 -0.6615  0.2446 -1.5667
  394GLU     H453902   5.770   0.305   6.911  0.2563 -1.2295  2.9254
  394GLU     H553903   5.808   0.098   7.100  0.4060 -0.7154  0.1516
  394GLU     H653904   5.695   7.621   7.245 -1.5689 -0.4322 -1.8822
  394GLU     H753905   5.529   0.006   7.203  0.0667  0.4548  1.2299
  394GLU     H853906   5.536   0.087   7.403 -1.3417  0.4703 -1.7446
  394GLU     H953907   5.651   0.202   7.335 -0.7885  0.1975  3.5401
  394GLU    H1053908   5.839   0.127   7.455  0.0143  0.7026 -0.7087
  394GLU    H1153909   5.746   7.646   7.491 -1.2573  0.1078 -1.8964
  394GLU    H1253910   5.595   0.141   7.609 -0.0936  1.7227  0.2538
  394GLU    H1353911   5.948   0.121   7.693  2.2591 -0.1820  2.0101
  394GLU    H1453912   5.936   0.317   7.835 -2.2746  2.7425  2.0140
  394GLU    H1553913   5.801   0.250   7.926 -1.0805 -1.4285  0.5083
  394GLU    H1653914   5.652   0.342   7.763  0.5490 -1.6313 -0.5554
  395GLU     C153915   0.411   7.087   4.059  0.3765  0.6699 -0.6130
  395GLU     C253916   0.317   7.074   3.936 -0.3956  0.1744 -0.3274
  395GLU     C353917   0.384   7.136   3.808  0.4098 -0.1453 -0.1188
  395GLU     O153918   0.512   7.062   3.793  0.5825 -0.6222 -0.2018
  395GLU     C453919   0.562   6.963   3.889  0.9055 -0.4705  0.1072
  395GLU     C553920   0.711   6.926   3.874  0.1515 -0.2049  0.8104
  395GLU     C653921   0.765   6.816   3.772 -0.3989 -0.4308  0.0955
  395GLU     C753922   0.919   6.814   3.770 -0.2791  0.2864  0.0100
  395GLU     C853923   0.990   6.692   3.695 -0.4588 -0.3169 -0.0874
  395GLU     O253924   1.141   6.694   3.715 -0.5218 -0.6793 -0.2142
  395GLU     C953925   1.225   6.573   3.695  0.1532 -0.6986  0.0228
  395GLU    C1053926   1.160   6.464   3.782 -0.0435  0.8664  0.7011
  395GLU    C1153927   1.020   6.488   3.834  0.1092 -0.4334 -1.1724
  395GLU     O353928   0.936   6.573   3.750  0.8353 -0.3566  0.5452
  395GLU     O453929   0.523   6.999   4.028  0.2656  0.2424 -0.0348
  395GLU     H153930   0.454   7.186   4.039  2.2167  0.4699  1.9205
  395GLU     H253931   0.228   7.136   3.954  0.3627  1.4896 -0.9287
  395GLU     H353932   0.299   6.967   3.927  2.0470 -0.2673 -0.6945
  395GLU     H453933   0.391   7.244   3.830  1.3347  0.0554 -1.2997
  395GLU     H553934   0.526   6.863   3.861  2.3002 -1.1857  0.7437
  395GLU     H653935   0.729   6.900   3.979  2.2212 -0.9282  0.3195
  395GLU     H753936   0.754   7.024   3.849 -1.4066  0.2864 -0.1080
  395GLU     H853937   0.731   6.849   3.673  3.5773 -0.0604 -1.3140
  395GLU     H953938   0.733   6.714   3.796  1.9393 -1.2647 -0.1360
  395GLU    H1053939   0.955   6.792   3.871 -0.7019  2.0131  0.5689
  395GLU    H1153940   0.949   6.910   3.727 -3.3898  1.9857  1.2860
  395GLU    H1253941   0.963   6.696   3.589 -2.3950 -0.7028  0.3465
  395GLU    H1353942   1.214   6.550   3.588 -1.2529  2.7646 -0.7157
  395GLU    H1453943   1.211   6.442   3.877 -4.6190 -3.7895  2.4974
  395GLU    H1553944   1.160   6.368   3.730 -5.4712  0.6061  0.6832
  395GLU    H1653945   1.025   6.533   3.935 -3.0751 -0.0934 -1.0568
  396GLU     C153946   4.364   0.337   0.373 -1.0620  0.3009  0.5976
  396GLU     C253947   4.265   0.291   0.497  1.0717  0.1265 -0.2789
  396GLU     C353948   4.222   0.142   0.493 -0.2412  0.8690  0.4308
  396GLU     O153949   4.251   0.099   0.353  0.1573  0.5324 -1.0108
  396GLU     C453950   4.389   0.111   0.300  0.5293 -0.0585  0.2005
  396GLU     C553951   4.351   0.116   0.143  0.6241 -0.5873 -0.2416
  396GLU     C653952   4.321   7.663   0.074 -0.8557  0.3938 -0.3239
  396GLU     C753953   4.433   7.600   8.077  0.4432 -0.0327 -0.2756
  396GLU     C853954   4.390   7.503   7.969  1.0220  0.4350  0.2530
  396GLU     O253955   4.359   7.584   7.855  0.3021  0.5339  0.7562
  396GLU     C953956   4.439   7.571   7.728 -0.5404 -0.4168 -0.7317
  396GLU    C1053957   4.483   7.429   7.691  0.0768  0.5918 -0.2341
  396GLU    C1153958   4.475   7.333   7.808 -0.7516 -0.8184 -0.1557
  396GLU     O353959   4.484   7.405   7.933 -1.0557  0.3963 -0.3416
  396GLU     O453960   4.448   0.236   0.342 -0.7340 -0.5069  0.6853
  396GLU     H153961   4.301   0.367   0.288  0.1273  0.3153 -0.3076
  396GLU     H253962   4.178   0.357   0.488 -0.3685 -1.1114  2.9968
  396GLU     H353963   4.307   0.326   0.592 -1.2892  3.7485 -0.3720
  396GLU     H453964   4.114   0.128   0.478  0.1927  1.0696 -5.2218
  396GLU     H553965   4.440   0.016   0.320 -0.5374 -1.7518 -4.0323
  396GLU     H653966   4.433   0.168   0.093 -1.9793  3.4861 -0.7512
  396GLU     H753967   4.275   0.192   0.124  2.3581  0.5244 -3.3935
  396GLU     H853968   4.233   7.669   0.009  0.9424 -1.0066 -3.0800
  396GLU     H953969   4.295   7.588   0.150 -2.8007  0.4961 -0.8203
  396GLU    H1053970   4.508   7.562   0.050 -0.2438  0.0481  0.5242
  396GLU    H1153971   4.478   7.681   8.019 -3.7723  3.0321  0.3153
  396GLU    H1253972   4.302   7.455   8.013  2.7909  0.9210  4.9504
  396GLU    H1353973   4.531   7.629   7.741 -0.2064  0.3854 -5.2816
  396GLU    H1453974   4.584   7.427   7.647  2.3230  0.3033  4.3124
  396GLU    H1553975   4.415   7.395   7.612 -0.0063  1.5250 -0.5810
  396GLU    H1653976   4.376   7.287   7.801 -0.5111 -1.6804  1.7039
  397GLU     C153977   5.702   6.217   6.343  0.2314 -0.8202 -0.3708
  397GLU     C253978   5.786   6.136   6.448  0.2246  0.3449  0.6252
  397GLU     C353979   5.879   6.224   6.533  0.5818 -0.7018  0.1282
  397GLU     O153980   5.814   6.351   6.569  0.5013 -0.6945  0.5955
  397GLU     C453981   5.754   6.435   6.454 -0.1726  0.9730  0.9364
  397GLU     C553982   5.864   6.552   6.430  0.5707 -0.6125  0.1858
  397GLU     C653983   5.805   6.683   6.491 -0.8481 -0.4377  0.2622
  397GLU     C753984   5.906   6.802   6.481 -0.4677 -1.0524 -0.9545
  397GLU     C853985   5.895   6.947   6.544  0.4588 -0.4178  0.9463
  397GLU     O253986   5.813   6.963   6.664  0.3119  0.0972  0.6152
  397GLU     C953987   5.790   7.081   6.722 -1.2430 -0.0677  0.2763
  397GLU    C1053988   5.931   7.129   6.763 -1.3449 -0.4445  0.5997
  397GLU    C1153989   6.034   7.117   6.643 -0.5280  0.2426 -0.1998
  397GLU     O353990   6.017   6.985   6.579  0.1581 -1.3917 -0.0840
  397GLU     O453991   5.760   6.352   6.335  0.1002  0.7556  0.1516
  397GLU     H153992   5.597   6.224   6.373  0.3789 -0.2020 -0.0021
  397GLU     H253993   5.829   6.049   6.397 -1.7229 -1.1942  1.4642
  397GLU     H353994   5.730   6.089   6.529  0.4580 -3.2082 -1.0921
  397GLU     H453995   5.963   6.240   6.464  1.9433  0.8931  2.0486
  397GLU     H553996   5.657   6.477   6.484 -0.1739  0.5266  1.5791
  397GLU     H653997   5.889   6.569   6.325  0.9498 -6.4979 -1.0387
  397GLU     H753998   5.961   6.546   6.481  1.4639 -0.5097 -1.4428
  397GLU     H853999   5.785   6.668   6.598 -3.6172  1.7853  0.1476
  397GLU     H954000   5.718   6.707   6.429  0.3459 -2.8304 -2.6268
  397GLU    H1054001   5.912   6.841   6.378  0.5505  3.3012  0.5677
  397GLU    H1154002   6.006   6.763   6.504 -0.4880  0.1065  1.3007
  397GLU    H1254003   5.849   7.015   6.472  0.6701 -0.9681  0.2838
  397GLU    H1354004   5.717   7.059   6.802 -0.3907 -4.9781  0.0151
  397GLU    H1454005   5.968   7.067   6.846  2.3879  0.9576  0.2006
  397GLU    H1554006   5.932   7.238   6.779  0.4847  0.1977 -2.9750
  397GLU    H1654007   6.021   7.191   6.564 -1.6234  1.2069  0.8446
  398GLU     C154008   2.020   5.638   4.013 -0.8980  0.5820  0.8189
  398GLU     C254009   2.076   5.494   4.016  0.4023 -0.7362 -0.0998
  398GLU     C354010   2.223   5.483   4.020 -1.2348  0.3118  0.0786
  398GLU     O154011   2.286   5.583   3.940  0.0561  0.3002 -0.9015
  398GLU     C454012   2.262   5.704   4.003  0.3862 -0.6076 -0.7208
  398GLU     C554013   2.364   5.817   3.962  0.0806 -0.6215 -0.1974
  398GLU     C654014   2.497   5.770   3.909 -0.4065  0.5935  0.6632
  398GLU     C754015   2.616   5.867   3.906 -0.3053 -0.7100  0.2782
  398GLU     C854016   2.690   5.899   4.029  1.0256 -0.4070  0.5661
  398GLU     O254017   2.665   5.817   4.144  1.2304 -0.3320  0.2765
  398GLU     C954018   2.728   5.866   4.262  1.0526 -0.5264 -0.5773
  398GLU    C1054019   2.881   5.889   4.238 -0.9695  0.4736  0.5385
  398GLU    C1154020   2.900   5.971   4.108  0.3424 -0.5980 -0.6676
  398GLU     O354021   2.828   5.902   4.006 -0.4292  0.9680  0.1065
  398GLU     O454022   2.121   5.730   3.961  0.6238  0.2694  0.2981
  398GLU     H154023   2.016   5.672   4.117  0.9525  0.2692  1.0267
  398GLU     H254024   2.051   5.436   3.927 -0.0015  0.2661 -0.6590
  398GLU     H354025   2.035   5.446   4.106  1.0636  0.9678  1.1760
  398GLU     H454026   2.260   5.488   4.124 -3.2020 -2.1234  0.9857
  398GLU     H554027   2.258   5.714   4.112 -2.7066  3.1087 -0.9582
  398GLU     H654028   2.397   5.859   4.059  0.5083 -1.8392  0.1975
  398GLU     H754029   2.313   5.886   3.894 -0.6878 -0.8830  0.0964
  398GLU     H854030   2.486   5.713   3.816 -2.2898 -3.0992  2.8771
  398GLU     H954031   2.550   5.692   3.965  4.2597  0.0795 -3.7709
  398GLU    H1054032   2.572   5.959   3.866  2.3795  0.0982 -1.0349
  398GLU    H1154033   2.679   5.813   3.835  0.4999 -0.9532  1.1535
  398GLU    H1254034   2.665   6.004   4.046  0.5636 -0.1764 -1.3440
  398GLU    H1354035   2.686   5.964   4.286  1.8500 -0.2459 -0.2787
  398GLU    H1454036   2.937   5.795   4.228  2.3216  2.4716 -1.6487
  398GLU    H1554037   2.926   5.954   4.314  1.8312  1.0681 -1.4559
  398GLU    H1654038   2.853   6.068   4.124  4.7609  1.6020  0.4702
  399GLU     C154039   2.790   0.346   1.195 -1.1891 -1.4624  0.6303
  399GLU     C254040   2.748   0.200   1.204  0.4857 -0.9901 -0.2176
  399GLU     C354041   2.830   0.110   1.288 -0.8373 -0.6220 -0.4151
  399GLU     O154042   2.872   0.176   1.414 -0.6597 -0.4347  0.4703
  399GLU     C454043   2.840   0.313   1.445 -0.1750 -0.0711  0.5015
  399GLU     C554044   2.927   0.358   1.574 -0.8834 -0.3789 -0.8089
  399GLU     C654045   2.884   0.273   1.710  0.2636  0.6800  1.7428
  399GLU     C754046   2.943   0.322   1.834  0.5913 -1.5567  0.6660
  399GLU     C854047   2.913   0.252   1.968 -0.1615 -0.2683  0.0903
  399GLU     O254048   2.937   0.115   1.936 -0.1101  0.7236  1.0345
  399GLU     C954049   3.046   0.047   1.986  0.9672  1.0849 -0.5612
  399GLU    C1054050   3.050   0.050   2.144 -0.2808 -0.0252 -0.2170
  399GLU    C1154051   3.018   0.184   2.201  0.4834 -0.9733 -0.2862
  399GLU     O354052   2.994   0.281   2.094  0.2632  0.0423  0.0768
  399GLU     O454053   2.835   0.391   1.316  0.0656  0.0646  0.2618
  399GLU     H154054   2.875   0.345   1.125 -1.7780  0.1099 -0.1405
  399GLU     H254055   2.756   0.148   1.107 -0.1579 -0.7892 -0.3860
  399GLU     H354056   2.641   0.205   1.228 -0.2510  3.9563 -3.1062
  399GLU     H454057   2.771   0.025   1.326 -4.4585  2.9007  2.7634
  399GLU     H554058   2.735   0.297   1.472 -0.5886 -0.0860 -1.0527
  399GLU     H654059   2.933   0.458   1.618  3.7333 -0.7103 -0.1556
  399GLU     H754060   3.033   0.344   1.549 -1.2096 -0.5677 -2.1478
  399GLU     H854061   2.899   0.168   1.684 -2.9715  0.5296  0.0266
  399GLU     H954062   2.775   0.275   1.715  0.1186  0.6023 -0.4723
  399GLU    H1054063   2.886   0.414   1.852  0.9119 -1.9789  5.1276
  399GLU    H1154064   3.049   0.350   1.821 -0.2749  2.5079  0.9615
  399GLU    H1254065   2.809   0.254   2.000  0.5396 -1.9422  2.7422
  399GLU    H1354066   3.001   7.636   1.960  0.4979  1.8059 -2.5779
  399GLU    H1454067   3.144   0.020   2.192  1.4706  2.8668 -1.5374
  399GLU    H1554068   2.988   7.651   2.178 -0.1222 -0.5176 -1.1034
  399GLU    H1654069   3.107   0.206   2.261 -1.5708 -2.4055  3.6308
  400GLU     C154070   2.627   6.708   2.337 -0.6723 -0.0270 -0.6184
  400GLU     C254071   2.699   6.614   2.234  0.6580 -0.4318  0.1453
  400GLU     C354072   2.649   6.467   2.274 -0.0657 -0.3294 -0.0572
  400GLU     O154073   2.533   6.463   2.366  0.2243 -0.0787 -1.4924
  400GLU     C454074   2.439   6.557   2.309 -0.3352  1.2296  1.3427
  400GLU     C554075   2.291   6.522   2.366 -0.4314  0.2912  0.3291
  400GLU     C654076   2.176   6.548   2.269 -0.2538 -0.2918 -0.1676
  400GLU     C754077   2.145   6.420   2.182  0.0389 -0.2745  0.6802
  400GLU     C854078   2.026   6.439   2.085  0.6457  0.7381 -1.0205
  400GLU     O254079   1.995   6.315   2.018  0.5406  0.3500  0.4309
  400GLU     C954080   1.875   6.325   1.933 -0.5119  0.4643 -0.0126
  400GLU    C1054081   1.741   6.363   2.020 -0.8966  0.0181 -0.2660
  400GLU    C1154082   1.792   6.409   2.155  0.6296 -0.3168  0.7383
  400GLU     O354083   1.913   6.495   2.154 -0.4608 -0.3101  0.8981
  400GLU     O454084   2.478   6.692   2.327  0.2302  0.4234  0.3598
  400GLU     H154085   2.649   6.661   2.433 -3.4780 -0.8880 -0.3118
  400GLU     H254086   2.808   6.628   2.230  0.5393  1.1069  1.1573
  400GLU     H354087   2.662   6.648   2.137  2.8246  4.8357  0.8393
  400GLU     H454088   2.609   6.420   2.184  0.9059 -1.6633  0.1725
  400GLU     H554089   2.439   6.536   2.201 -1.7926  1.5858  1.2516
  400GLU     H654090   2.273   6.579   2.457  2.5762  0.3800  0.9799
  400GLU     H754091   2.276   6.417   2.392 -4.4900  0.3311 -1.2116
  400GLU     H854092   2.199   6.640   2.213 -2.0642  1.5055  1.8583
  400GLU     H954093   2.091   6.577   2.332  0.1840 -1.3945  0.9777
  400GLU    H1054094   2.140   6.340   2.257  0.6945  0.0249  1.0594
  400GLU    H1154095   2.240   6.422   2.128  0.6571  3.2736  1.6431
  400GLU    H1254096   2.054   6.511   2.007  3.0543  1.4407  0.3923
  400GLU    H1354097   1.886   6.400   1.854  2.7133 -3.2172 -3.5304
  400GLU    H1454098   1.659   6.291   2.027 -1.1724  0.2348 -1.1240
  400GLU    H1554099   1.695   6.438   1.955 -1.0698 -0.4322 -0.6665
  400GLU    H1654100   1.837   6.329   2.215  2.3700  1.1751  1.5414
  401GLU     C154101   2.967   5.194   7.223  0.4233 -0.5969  0.3543
  401GLU     C254102   2.855   5.274   7.257 -0.4757 -1.4354  0.5561
  401GLU     C354103   2.822   5.269   7.406  0.5809  0.0029  0.1498
  401GLU     O154104   2.936   5.294   7.494 -0.4246 -0.6178 -0.8373
  401GLU     C454105   3.073   5.266   7.458  0.9510  0.9482  0.5167
  401GLU     C554106   3.141   5.180   7.571  1.5143  0.6327  0.0424
  401GLU     C654107   3.081   5.144   7.713  1.4821 -0.0923  1.0789
  401GLU     C754108   3.176   5.142   7.844 -0.0037 -0.0882  0.2050
  401GLU     C854109   3.147   5.024   7.952  0.6982  0.1187  0.9023
  401GLU     O254110   3.235   5.042   8.080 -0.0449 -0.0765  0.0471
  401GLU     C954111   3.180   5.017   0.112 -0.0107  0.0347  1.3754
  401GLU    C1054112   3.087   4.887   0.081 -0.0421  0.4089 -0.7915
  401GLU    C1154113   2.962   4.891   8.074  1.0316  0.3111 -1.3876
  401GLU     O354114   3.003   4.982   7.968  0.3617  0.1403 -0.5747
  401GLU     O454115   3.075   5.196   7.323  0.4636  0.5587  1.1653
  401GLU     H154116   2.930   5.090   7.226 -1.5739 -0.0152 -1.4129
  401GLU     H254117   2.786   5.222   7.189  1.2494 -1.6680 -1.1081
  401GLU     H354118   2.859   5.379   7.225 -3.1298 -0.8936  1.7677
  401GLU     H454119   2.784   5.168   7.421 -1.1214  0.9808  3.5076
  401GLU     H554120   3.131   5.358   7.444  0.1008  1.5078  0.5634
  401GLU     H654121   3.233   5.240   7.574 -0.0815  3.5096 -2.8579
  401GLU     H754122   3.161   5.085   7.521  4.2477  0.0685  1.9415
  401GLU     H854123   3.001   5.069   7.714 -0.6749  2.0852  1.1248
  401GLU     H954124   3.021   5.232   7.741  4.5425  2.9098 -1.0349
  401GLU    H1054125   3.158   5.235   7.899  0.5292 -0.3661  0.8561
  401GLU    H1154126   3.283   5.162   7.827 -0.1224  1.2510  0.9637
  401GLU    H1254127   3.188   4.936   7.901 -1.0968  0.1100 -0.6460
  401GLU    H1354128   3.111   5.101   0.125 -0.7472 -0.2149 -0.5573
  401GLU    H1454129   3.057   4.849   0.179 -0.8131 -0.8225 -1.4865
  401GLU    H1554130   3.148   4.806   0.041 -1.1236 -0.4447 -0.7519
  401GLU    H1654131   2.871   4.930   0.025  2.6228  0.4340  1.7275
  402GLU     C154132   0.604   0.788   4.203 -0.8627 -1.1057  1.4840
  402GLU     C254133   0.620   0.641   4.153 -0.1943 -1.0069  1.0161
  402GLU     C354134   0.593   0.625   4.005 -0.3633  0.2039  1.0630
  402GLU     O154135   0.674   0.748   3.941 -0.1801 -0.6928 -1.4219
  402GLU     C454136   0.767   0.849   4.013  0.0634  0.4274 -0.5724
  402GLU     C554137   0.836   0.994   3.938  0.6483 -0.6725 -0.3917
  402GLU     C654138   1.001   1.038   3.929  0.0249  0.7053  0.2369
  402GLU     C754139   1.078   1.178   3.881  0.1308  1.1122  0.1789
  402GLU     C854140   1.245   1.180   3.827 -0.2144 -1.0163  0.3974
  402GLU     O254141   1.332   1.317   3.807  0.1939  0.1859  0.0114
  402GLU     C954142   1.477   1.334   3.814  0.4378  0.6314  1.3256
  402GLU    C1054143   1.539   1.190   3.767 -1.6469 -0.8061  0.3990
  402GLU    C1154144   1.443   1.069   3.777  0.9027 -0.4746 -0.0921
  402GLU     O354145   1.344   1.086   3.876  0.0076  0.0845  0.6670
  402GLU     O454146   0.698   0.887   4.140  0.3762  0.7903 -0.6950
  402GLU     H154147   0.514   0.822   4.150  1.1191  0.2684 -1.2721
  402GLU     H254148   0.537   0.591   4.204 -0.2619 -1.3198  0.6055
  402GLU     H354149   0.708   0.587   4.189 -0.9665 -0.6203  3.6630
  402GLU     H454150   0.491   0.659   3.988  0.0787  0.1617 -2.3945
  402GLU     H554151   0.851   0.783   4.037  0.5920  0.6296 -1.8267
  402GLU     H654152   0.780   1.076   3.985 -1.5311 -1.6159 -1.2077
  402GLU     H754153   0.786   0.983   3.841 -0.8691 -1.2236  0.4013
  402GLU     H854154   1.056   0.987   3.849  0.0817 -0.3094  0.9070
  402GLU     H954155   1.052   1.001   4.019 -1.4269  0.3393  0.9315
  402GLU    H1054156   1.084   1.239   3.973 -0.4670  1.4407  0.0046
  402GLU    H1154157   1.032   1.236   3.800  0.9625  2.1783  0.4416
  402GLU    H1254158   1.234   1.158   3.720  0.6062  0.6495 -0.0665
  402GLU    H1354159   1.503   1.351   3.919 -0.1345 -2.0117  1.9563
  402GLU    H1454160   1.636   1.173   3.816 -2.9216  2.0450  4.4427
  402GLU    H1554161   1.586   1.193   3.668 -0.9145  0.3885  0.7619
  402GLU    H1654162   1.399   1.055   3.677  2.9820 -3.4264 -0.7427
  403GLU     C154163   6.662   7.228   5.266  0.4719  0.9190 -0.4655
  403GLU     C254164   6.569   7.105   5.269 -0.9116 -1.0895 -0.0340
  403GLU     C354165   6.451   7.065   5.160  0.1121 -0.4227 -0.2624
  403GLU     O154166   6.473   7.146   5.044 -0.7328  0.8153  0.4985
  403GLU     C454167   6.599   7.242   5.030  0.1004  0.3316 -0.2199
  403GLU     C554168   6.589   7.359   4.925 -0.3694 -0.6700 -0.1102
  403GLU     C654169   6.712   7.451   4.906 -0.4636 -0.2734 -0.0424
  403GLU     C754170   6.684   7.584   4.829  0.2239 -0.0451  0.3754
  403GLU     C854171   6.828   7.653   4.782 -1.0573 -1.2328 -0.7748
  403GLU     O254172   6.841   7.613   4.648 -0.1534  0.8174 -1.2282
  403GLU     C954173   6.975   7.611   4.599  0.6122  0.0272  0.4078
  403GLU    C1054174   7.038   0.069   4.634  0.2721 -0.3665  0.2473
  403GLU    C1154175   6.940   0.172   4.697  0.1053 -0.3207  0.4127
  403GLU     O354176   6.844   0.117   4.793 -0.0216 -0.4088  0.8104
  403GLU     O454177   6.615   7.309   5.159  0.1468  0.5914 -0.2668
  403GLU     H154178   6.754   7.178   5.235  0.4293 -0.4570  1.4707
  403GLU     H254179   6.507   7.106   5.360  1.7671  1.0308  1.8928
  403GLU     H354180   6.638   7.020   5.267 -0.3680 -0.6382 -1.1699
  403GLU     H454181   6.355   7.071   5.212  0.6339 -1.0107  0.8016
  403GLU     H554182   6.694   7.192   5.006  1.6031  2.6026  0.6767
  403GLU     H654183   6.507   7.422   4.962  0.8897  0.7732  0.3806
  403GLU     H754184   6.558   7.328   4.825  0.5038 -0.0214 -0.6022
  403GLU     H854185   6.794   7.393   4.861  3.3641  2.8160  2.2765
  403GLU     H954186   6.756   7.476   5.003  3.9831 -3.3297 -0.9281
  403GLU    H1054187   6.638   7.669   4.881  0.4465  1.3284 -1.5556
  403GLU    H1154188   6.624   7.574   4.738 -1.0032  0.3991  1.1098
  403GLU    H1254189   6.924   7.617   4.821  0.4917  3.0023 -0.1927
  403GLU    H1354190   7.015   7.520   4.644 -0.9858 -0.7276  0.3790
  403GLU    H1454191   7.101   0.102   4.550  1.6500 -1.9385  0.6079
  403GLU    H1554192   7.113   0.047   4.711 -1.6316 -1.0738  1.9784
  403GLU    H1654193   6.883   0.201   4.608  1.2764  0.2839 -0.1702
  404GLU     C154194   6.050   6.907   0.082 -0.2374  1.4152 -0.4938
  404GLU     C254195   6.152   6.802   0.044  0.0036 -0.1223  0.4947
  404GLU     C354196   6.159   6.788   7.988 -0.8798 -0.0343  0.2395
  404GLU     O154197   6.121   6.912   7.926 -0.3344 -1.0344  0.8665
  404GLU     C454198   6.143   7.037   7.993 -0.6203 -0.2540 -0.9245
  404GLU     C554199   6.093   7.166   7.916 -0.1582  0.8481  0.3319
  404GLU     C654200   6.209   7.246   7.829 -0.3178  0.9028  0.2919
  404GLU     C754201   6.158   7.322   7.709 -1.0959 -0.0388  0.5519
  404GLU     C854202   6.219   7.458   7.676  1.0299  0.7931 -0.0915
  404GLU     O254203   6.368   7.473   7.693  0.3840  0.7969 -0.4404
  404GLU     C954204   6.408   7.613   7.697  0.4263 -0.9563  0.1248
  404GLU    C1054205   6.346   7.684   7.579  0.1717 -0.7466  0.3352
  404GLU    C1154206   6.196   7.669   7.562 -0.1703 -0.3767  0.0178
  404GLU     O354207   6.157   7.533   7.571  0.3680 -0.1514 -0.1164
  404GLU     O454208   6.082   7.034   0.023 -0.3820  0.3109  0.0268
  404GLU     H154209   5.958   6.870   0.035 -1.3861  3.7812 -0.2766
  404GLU     H254210   6.153   6.700   0.084  3.0228 -0.7213 -0.8514
  404GLU     H354211   6.244   6.846   0.086  1.1679 -3.1068  1.3124
  404GLU     H454212   6.262   6.754   7.971 -0.9216 -0.2415  0.4005
  404GLU     H554213   6.250   7.041   8.017 -0.8348  4.4861  0.1129
  404GLU     H654214   6.026   7.234   7.969 -1.3943  4.3736 -4.9911
  404GLU     H754215   6.037   7.130   7.829 -0.4766 -1.0913  1.2719
  404GLU     H854216   6.289   7.173   7.813 -1.8317 -0.8575  0.5277
  404GLU     H954217   6.257   7.317   7.898 -1.5681 -1.1341  3.4446
  404GLU    H1054218   6.051   7.345   7.698 -0.9227  0.6282  0.1607
  404GLU    H1154219   6.201   7.251   7.637 -0.6904 -2.8408  3.3381
  404GLU    H1254220   6.179   7.508   7.765 -3.1452 -0.2727 -1.1800
  404GLU    H1354221   6.371   7.668   7.785 -0.0418  0.0305 -0.6647
  404GLU    H1454222   6.393   7.649   7.486  0.8480 -2.0688  1.1456
  404GLU    H1554223   6.361   0.108   7.587 -1.6360 -0.5844  2.5063
  404GLU    H1654224   6.153   0.023   7.655  2.8855  1.1174  0.9178
  405GLU     C154225   2.593   5.483   2.300 -0.1006 -0.1705 -0.1242
  405GLU     C254226   2.598   5.417   2.154  0.4856  0.0975 -0.7337
  405GLU     C354227   2.587   5.531   2.053 -0.6414  0.0431  0.6710
  405GLU     O154228   2.697   5.617   2.083 -0.7365 -0.2238  0.1834
  405GLU     C454229   2.669   5.692   2.194 -0.4282 -1.0684  0.0825
  405GLU     C554230   2.623   5.833   2.133 -0.2609  0.2279 -0.0621
  405GLU     C654231   2.699   5.932   2.038 -0.9612 -0.3994 -0.3713
  405GLU     C754232   2.598   6.040   1.985 -0.9717 -0.3550  0.6649
  405GLU     C854233   2.639   6.173   1.899 -0.2089 -0.2326 -0.1853
  405GLU     O254234   2.525   6.235   1.832 -1.0426 -0.2992  0.2410
  405GLU     C954235   2.460   6.357   1.892 -0.7771 -1.2157  0.3648
  405GLU    C1054236   2.575   6.459   1.883 -0.4616  0.6600 -0.6956
  405GLU    C1154237   2.716   6.411   1.938 -0.3933 -1.0449 -0.2046
  405GLU     O354238   2.705   6.275   1.979 -0.1633  0.3344  0.3347
  405GLU     O454239   2.573   5.625   2.280  0.1077  0.2470  0.3577
  405GLU     H154240   2.699   5.472   2.326  1.2429  2.8460 -3.4545
  405GLU     H254241   2.521   5.341   2.133  2.4671 -1.7670 -1.7784
  405GLU     H354242   2.701   5.380   2.145  0.3420 -2.2246  4.2439
  405GLU     H454243   2.492   5.585   2.048 -0.5738  0.1064 -0.0069
  405GLU     H554244   2.767   5.714   2.237  1.0099 -2.3893 -2.3175
  405GLU     H654245   2.602   5.900   2.217  0.0104 -1.5626  1.4960
  405GLU     H754246   2.538   5.799   2.071  1.1862 -0.5935 -1.6928
  405GLU     H854247   2.738   5.875   1.953 -2.5289  0.0443 -1.4360
  405GLU     H954248   2.788   5.977   2.085  1.1869 -1.7957 -2.8583
  405GLU    H1054249   2.542   6.077   2.071 -0.7903 -2.0087  1.5302
  405GLU    H1154250   2.518   5.982   1.937 -1.6599  2.6400 -2.2136
  405GLU    H1254251   2.716   6.149   1.825 -1.1584 -0.1416 -1.2081
  405GLU    H1354252   2.423   6.329   1.992 -1.7543  0.9104  0.6491
  405GLU    H1454253   2.545   6.553   1.931 -5.1204 -2.0590  2.5709
  405GLU    H1554254   2.592   6.477   1.776  2.7079 -3.4508 -1.1218
  405GLU    H1654255   2.766   6.474   2.012  3.0297 -2.5866 -1.0091
  406GLU     C154256   3.865   6.802   2.642 -0.1949  0.2585 -0.1685
  406GLU     C254257   3.778   6.934   2.643 -0.4859  0.9796 -0.0440
  406GLU     C354258   3.625   6.919   2.676 -0.2485  0.0197 -0.3933
  406GLU     O154259   3.605   6.792   2.603 -0.7810 -0.0972  0.1786
  406GLU     C454260   3.675   6.671   2.630  1.0353  0.5385 -0.5329
  406GLU     C554261   3.603   6.548   2.573 -0.1495  0.0647 -0.7899
  406GLU     C654262   3.667   6.408   2.603  0.8627 -0.7368  0.0151
  406GLU     C754263   3.589   6.272   2.568 -0.4735 -1.0313  0.9689
  406GLU     C854264   3.639   6.120   2.580 -0.0828  0.9170  0.4319
  406GLU     O254265   3.536   6.019   2.518 -0.9770 -0.5346 -0.9027
  406GLU     C954266   3.583   5.915   2.413  0.6686 -1.1422 -0.6160
  406GLU    C1054267   3.720   5.860   2.474  1.3536 -1.1851  0.7704
  406GLU    C1154268   3.818   5.971   2.471 -1.2275 -0.7507 -0.0188
  406GLU     O354269   3.754   6.102   2.502  0.2573  0.3066 -0.4527
  406GLU     O454270   3.800   6.684   2.584  0.0404 -0.6323 -0.4630
  406GLU     H154271   3.953   6.813   2.578  0.9941 -0.7771  1.2058
  406GLU     H254272   3.792   6.990   2.549 -1.8380  2.5885  0.6563
  406GLU     H354273   3.829   7.010   2.703 -0.5754  0.2802  0.9454
  406GLU     H454274   3.607   6.900   2.782  4.8715 -2.0664  0.3812
  406GLU     H554275   3.668   6.655   2.738 -1.7881  1.1178 -0.5531
  406GLU     H654276   3.623   6.567   2.467 -0.8653 -0.0308 -0.9471
  406GLU     H754277   3.496   6.551   2.597  0.0624 -1.4214  0.5322
  406GLU     H854278   3.694   6.409   2.709 -1.4508 -1.8746  0.6970
  406GLU     H954279   3.751   6.410   2.532 -3.1170 -0.3153 -5.3650
  406GLU    H1054280   3.566   6.283   2.462 -2.7637  1.9822  1.6569
  406GLU    H1154281   3.485   6.275   2.601 -2.8977 -1.6192 -5.2861
  406GLU    H1254282   3.645   6.092   2.686 -0.3087  1.0924  0.4922
  406GLU    H1354283   3.588   5.968   2.317  3.5062  0.5215  0.3584
  406GLU    H1454284   3.766   5.767   2.438  1.4057 -0.2996 -1.6739
  406GLU    H1554285   3.699   5.824   2.575  4.3875  4.3150  3.7773
  406GLU    H1654286   3.853   5.985   2.368 -0.3438 -1.8342  0.1128
  407GLU     C154287   5.481   6.469   0.398 -0.5524 -0.3032  0.6366
  407GLU     C254288   5.607   6.388   0.355  1.6106  0.3692 -0.5750
  407GLU     C354289   5.738   6.457   0.306  0.0844 -0.1078 -0.7187
  407GLU     O154290   5.722   6.591   0.345  0.9513  0.1514 -0.5683
  407GLU     C454291   5.598   6.659   0.339  1.0794 -0.1106 -0.5178
  407GLU     C554292   5.585   6.775   0.246 -0.0401 -1.0285  0.4381
  407GLU     C654293   5.457   6.875   0.250 -1.3097  0.7557  0.2557
  407GLU     C754294   5.355   6.839   0.139  0.1934 -0.1805  0.3434
  407GLU     C854295   5.215   6.906   0.149  0.1737  0.0894  0.0725
  407GLU     O254296   5.237   7.043   0.172  0.1010  0.0348 -0.4074
  407GLU     C954297   5.233   7.135   0.058  0.2236 -0.3869 -0.1789
  407GLU    C1054298   5.104   7.120   8.097  0.2015 -0.2016  0.3647
  407GLU    C1154299   5.039   6.982   8.096 -0.4633 -0.7542 -0.4101
  407GLU     O354300   5.143   6.890   0.019 -0.2618 -0.1239 -0.6646
  407GLU     O454301   5.488   6.579   0.308  0.1675  0.6911  0.2526
  407GLU     H154302   5.473   6.510   0.499 -1.6787 -2.0648  1.3295
  407GLU     H254303   5.586   6.317   0.275  2.6410 -0.3552 -0.2242
  407GLU     H354304   5.641   6.331   0.443  1.2564  2.9196  1.3353
  407GLU     H454305   5.730   6.460   0.197 -1.6127  0.3306 -0.6258
  407GLU     H554306   5.605   6.706   0.438  2.7893  0.7078 -0.9864
  407GLU     H654307   5.577   6.722   0.150 -2.9821 -1.5435  0.8791
  407GLU     H754308   5.674   6.838   0.259 -0.7244  0.1194 -0.2814
  407GLU     H854309   5.479   6.981   0.234 -0.9876  0.6477 -0.0443
  407GLU     H954310   5.414   6.849   0.348  1.0603 -6.4848 -0.0288
  407GLU    H1054311   5.339   6.731   0.126  1.2742 -0.2756 -0.3021
  407GLU    H1154312   5.386   6.879   0.042  2.5255  0.8203  1.4062
  407GLU    H1254313   5.160   6.858   0.230  1.2507 -1.4616 -0.0802
  407GLU    H1354314   5.312   7.105   8.085  1.7258  1.8546  0.4265
  407GLU    H1454315   5.111   7.146   7.991 -1.1984  1.8608  0.7256
  407GLU    H1554316   5.026   7.192   0.026  4.4434  4.4198  1.6594
  407GLU    H1654317   4.999   6.965   7.995  0.5450  4.5404 -2.0667
  408GLU     C154318   5.554   6.872   3.455  0.6556 -0.3029 -0.6512
  408GLU     C254319   5.695   6.878   3.407  1.0433 -0.4576 -0.2205
  408GLU     C354320   5.790   6.889   3.525 -0.0592  0.1222  0.0992
  408GLU     O154321   5.727   6.937   3.639 -0.1194 -0.2612 -0.0059
  408GLU     C454322   5.625   6.840   3.684 -0.6797 -0.2707  0.2862
  408GLU     C554323   5.537   6.915   3.798 -0.6567 -0.1424  0.3708
  408GLU     C654324   5.436   6.839   3.888 -0.4798 -0.8724  0.0173
  408GLU     C754325   5.492   6.819   4.035  0.6500  1.3119  0.4628
  408GLU     C854326   5.383   6.818   4.158  0.3147  0.2199 -1.1506
  408GLU     O254327   5.269   6.736   4.129 -0.0960  0.7821 -0.3182
  408GLU     C954328   5.172   6.708   4.233 -0.1052  0.2885  0.1126
  408GLU    C1054329   5.247   6.649   4.353  0.2431 -0.3680 -0.3366
  408GLU    C1154330   5.358   6.745   4.391  0.0421 -0.5325  0.7075
  408GLU     O354331   5.442   6.785   4.286  0.6481 -0.4873  0.4656
  408GLU     O454332   5.543   6.788   3.575  0.0249  0.2268 -0.1921
  408GLU     H154333   5.513   6.974   3.464 -1.2005 -0.7040 -3.3658
  408GLU     H254334   5.691   6.959   3.334 -1.4450 -1.5200 -1.3642
  408GLU     H354335   5.717   6.786   3.351  0.4064 -0.4496 -0.4847
  408GLU     H454336   5.840   6.793   3.541  2.7464  1.5773  0.7487
  408GLU     H554337   5.667   6.748   3.726  3.7513 -0.0484 -3.0207
  408GLU     H654338   5.457   6.983   3.765 -2.4761 -2.0874  0.5819
  408GLU     H754339   5.610   6.958   3.868  0.6206 -1.0736 -0.3507
  408GLU     H854340   5.406   6.747   3.835  0.3786 -0.2323 -1.6828
  408GLU     H954341   5.338   6.888   3.896  0.2579  0.4713  1.2907
  408GLU    H1054342   5.569   6.888   4.072  2.5621 -0.7929  0.6457
  408GLU    H1154343   5.557   6.730   4.034  0.8867  1.3338  3.5631
  408GLU    H1254344   5.347   6.921   4.157 -0.1489  0.1698  2.0686
  408GLU    H1354345   5.148   6.810   4.263  0.8030  0.9274 -1.2360
  408GLU    H1454346   5.265   6.542   4.335 -1.2502 -0.4610 -1.4984
  408GLU    H1554347   5.178   6.659   4.438  1.3515  0.0004  0.5513
  408GLU    H1654348   5.300   6.829   4.431  1.3579  0.2954  0.9657
  409GLU     C154349   3.366   6.769   0.276 -0.0496 -0.0209  0.1526
  409GLU     C254350   3.519   6.774   0.229  1.0348 -0.0537  0.8179
  409GLU     C354351   3.564   6.916   0.193 -0.2344  0.6184 -0.0131
  409GLU     O154352   3.501   7.017   0.262 -0.0628 -0.2149 -0.0292
  409GLU     C454353   3.436   6.988   0.377 -0.0938  0.6691 -0.6309
  409GLU     C554354   3.369   7.116   0.439 -0.0072 -0.2916 -0.8568
  409GLU     C654355   3.454   7.245   0.437  0.7885  0.9526 -0.8439
  409GLU     C754356   3.437   7.355   0.552  0.7343 -0.6921  0.4077
  409GLU     C854357   3.536   7.470   0.563  0.0307  0.4985 -0.6415
  409GLU     O254358   3.566   7.494   0.704 -0.6746 -0.4637  0.2163
  409GLU     C954359   3.693   7.543   0.750  0.2933  0.2841 -0.0408
  409GLU    C1054360   3.760   7.618   0.641 -0.2206  0.6798 -0.3084
  409GLU    C1154361   3.771   7.530   0.513 -0.7681 -0.1448  0.7381
  409GLU     O354362   3.661   7.434   0.499 -0.6801  0.5811  0.4245
  409GLU     O454363   3.345   6.880   0.369  0.3892 -0.2859 -0.3751
  409GLU     H154364   3.308   6.807   0.191 -1.0723  2.1046  1.7064
  409GLU     H254365   3.521   6.720   0.134  5.2501 -0.9204  1.1952
  409GLU     H354366   3.590   6.723   0.295 -1.7990  1.9637  6.0795
  409GLU     H454367   3.552   6.917   0.084 -1.7188 -0.7018  0.1113
  409GLU     H554368   3.506   6.957   0.455 -1.0362  1.4734  0.5774
  409GLU     H654369   3.345   7.097   0.545 -0.4514 -1.8109 -1.1977
  409GLU     H754370   3.273   7.123   0.387 -1.5074  0.8427  1.8506
  409GLU     H854371   3.448   7.289   0.337 -2.7513  0.4733 -0.9745
  409GLU     H954372   3.556   7.211   0.459 -0.7868 -2.7580  1.9129
  409GLU    H1054373   3.430   7.301   0.647  3.4627 -1.1220  0.4423
  409GLU    H1154374   3.334   7.392   0.537  1.7085  1.4130 -1.7677
  409GLU    H1254375   3.495   7.562   0.519  0.3525  0.7458 -0.4242
  409GLU    H1354376   3.764   7.464   0.779 -2.1824 -0.7986  3.8039
  409GLU    H1454377   3.857   7.661   0.669 -0.8208  2.1563 -0.4252
  409GLU    H1554378   3.697   0.015   0.603 -1.5336  0.5899  1.5869
  409GLU    H1654379   3.853   7.460   0.535 -2.2671 -2.3281 -0.2955
  410GLU     C154380   4.450   1.019   4.010  0.8230  1.0391  0.2108
  410GLU     C254381   4.595   1.050   3.974  0.1126 -0.0498  0.8502
  410GLU     C354382   4.633   1.203   3.972 -0.3899 -0.2345 -0.2728
  410GLU     O154383   4.564   1.256   4.085 -0.5429 -0.6289 -0.1128
  410GLU     C454384   4.423   1.236   4.108 -0.2536  0.3279  0.5648
  410GLU     C554385   4.348   1.297   3.986  0.3173  0.0770 -1.2197
  410GLU     C654386   4.188   1.286   4.020 -0.3284 -0.7252  0.2526
  410GLU     C754387   4.104   1.403   3.967 -0.0583  0.4407  0.5171
  410GLU     C854388   4.077   1.397   3.818 -0.8349  0.0924 -0.5711
  410GLU     O254389   4.056   1.529   3.784 -0.0492 -0.5346  0.1689
  410GLU     C954390   4.140   1.599   3.704 -0.2791 -0.1633  1.7063
  410GLU    C1054391   4.151   1.500   3.577 -0.0813 -0.1034 -0.0865
  410GLU    C1154392   4.160   1.352   3.617  1.2149  0.3378  1.4767
  410GLU     O354393   4.191   1.344   3.756  0.4132  0.1843 -0.3577
  410GLU     O454394   4.400   1.098   4.120  0.4137 -0.4144  0.2844
  410GLU     H154395   4.375   1.030   3.931 -0.3162 -2.0220  0.6961
  410GLU     H254396   4.611   1.008   3.874  2.4964  2.4554  0.0602
  410GLU     H354397   4.657   1.016   4.057 -0.2519  2.3100  2.1539
  410GLU     H454398   4.587   1.238   3.878  1.9656 -0.4859 -1.6037
  410GLU     H554399   4.398   1.282   4.205  2.1159 -0.8464  1.8305
  410GLU     H654400   4.386   1.241   3.900 -1.1673  0.0173 -1.8642
  410GLU     H754401   4.365   1.405   3.974  1.0383  0.1104 -0.0693
  410GLU     H854402   4.153   1.280   4.124  2.0948 -1.3630  1.1011
  410GLU     H954403   4.152   1.195   3.971 -2.0011  0.5007 -0.9151
  410GLU    H1054404   4.162   1.490   4.002  0.2870  0.5982 -0.4288
  410GLU    H1154405   4.014   1.379   4.026 -0.3236 -0.7968 -0.3501
  410GLU    H1254406   3.988   1.334   3.804  1.1382 -2.3901 -3.0271
  410GLU    H1354407   4.241   1.582   3.744  1.3736 -0.5329 -2.1713
  410GLU    H1454408   4.227   1.532   3.505 -1.4238  0.4779 -1.2839
  410GLU    H1554409   4.059   1.517   3.521 -1.2573 -0.0572  1.7698
  410GLU    H1654410   4.069   1.301   3.583 -0.3423  2.9641  1.4485
  411GLU     C154411   0.088   1.123   5.549 -0.1761 -0.3180  0.1708
  411GLU     C254412   0.053   1.154   5.404  0.4593  0.0756 -0.3795
  411GLU     C354413   7.678   1.101   5.355 -0.6420 -0.5572 -0.0340
  411GLU     O154414   7.666   0.961   5.391 -0.6227  0.5000  0.0051
  411GLU     C454415   7.702   0.925   5.533  0.0923  1.3645  1.0484
  411GLU     C554416   7.693   0.775   5.534  0.1611  0.5640 -0.4648
  411GLU     C654417   7.665   0.723   5.679 -1.0417  0.4570  0.1079
  411GLU     C754418   7.683   0.570   5.692 -0.1698  0.0040  0.1859
  411GLU     C854419   7.602   0.486   5.583 -0.4523  0.9616 -0.4584
  411GLU     O254420   7.650   0.518   5.452  0.1893  0.2055  1.0953
  411GLU     C954421   7.643   0.421   5.344 -0.7564  0.9573 -0.2211
  411GLU    C1054422   7.689   0.281   5.406  0.1032  0.1575  0.3439
  411GLU    C1154423   7.598   0.245   5.526  0.5721  0.2285  0.6830
  411GLU     O354424   7.628   0.341   5.626  0.1027 -0.2074 -0.2357
  411GLU     O454425   0.069   0.975   5.547 -0.4471  0.3723 -0.2895
  411GLU     H154426   0.194   1.150   5.561 -1.1715  3.0365  2.7296
  411GLU     H254427   0.138   1.124   5.341  3.3932 -0.9973  3.7126
  411GLU     H354428   0.054   1.262   5.386 -2.3912  0.3621  0.5799
  411GLU     H454429   7.610   1.156   5.421  0.3204  5.0964 -3.1153
  411GLU     H554430   7.619   0.969   5.590 -3.6165 -0.8420 -2.0897
  411GLU     H654431   0.022   0.737   5.493 -0.7077 -2.8237  0.3353
  411GLU     H754432   7.606   0.746   5.475  1.1547 -4.5718  0.0517
  411GLU     H854433   7.564   0.753   5.710 -1.2821  0.2119 -0.4197
  411GLU     H954434   7.730   0.774   5.751 -2.7337  0.9975  1.3162
  411GLU    H1054435   7.658   0.522   5.788  1.9023 -0.2765  0.6264
  411GLU    H1154436   0.019   0.532   5.676 -0.8549 -1.9792  0.2278
  411GLU    H1254437   7.493   0.494   5.591 -0.5234 -1.0334  1.5619
  411GLU    H1354438   7.548   0.417   5.288 -0.0825  1.0483 -1.3912
  411GLU    H1454439   0.024   0.289   5.449  0.6422 -0.3790 -0.7972
  411GLU    H1554440   7.694   0.209   5.324  1.3928 -0.7196  1.1604
  411GLU    H1654441   7.495   0.272   5.501  1.0785  1.3646 -0.2697
  412GLU     C154442   4.238   3.422   2.724 -1.0134 -0.6709  0.0706
  412GLU     C254443   4.122   3.348   2.785  0.5841 -1.7945  0.4652
  412GLU     C354444   4.150   3.257   2.901 -0.1642 -0.5955 -0.2571
  412GLU     O154445   4.290   3.243   2.897 -0.2855 -0.3045 -0.3633
  412GLU     C454446   4.370   3.365   2.923 -0.3257 -0.0737 -0.2780
  412GLU     C554447   4.529   3.363   2.892 -0.6285 -0.4207  0.3804
  412GLU     C654448   4.616   3.376   3.023 -1.8026 -0.0632 -0.4868
  412GLU     C754449   4.778   3.367   3.000 -0.2766  0.1475  0.6368
  412GLU     C854450   4.894   3.336   3.104  1.0930  0.3235  0.5163
  412GLU     O254451   4.862   3.384   3.235  0.5602 -1.8095  0.1311
  412GLU     C954452   4.972   3.368   3.322  0.0141 -0.6448  0.4468
  412GLU    C1054453   5.001   3.218   3.344  0.6596 -0.1457  0.3218
  412GLU    C1154454   5.002   3.123   3.211 -0.0459 -0.6912 -0.2867
  412GLU     O354455   4.924   3.190   3.107 -0.2087 -0.7478 -0.0208
  412GLU     O454456   4.317   3.465   2.829  0.9074 -0.5590  0.5217
  412GLU     H154457   4.298   3.346   2.673  1.2451 -0.0824  1.6753
  412GLU     H254458   4.068   3.290   2.710 -1.7427 -0.3344  0.9109
  412GLU     H354459   4.052   3.421   2.827 -0.6449 -2.8725  0.3649
  412GLU     H454460   4.137   3.294   3.003 -0.0978 -3.3727  0.8553
  412GLU     H554461   4.357   3.399   3.027  2.9689  1.4804 -0.2544
  412GLU     H654462   4.563   3.437   2.819 -2.2276  0.5487  0.5619
  412GLU     H754463   4.563   3.267   2.850  0.6402  0.5291 -0.8348
  412GLU     H854464   4.599   3.298   3.098  1.0261  0.2303  0.5545
  412GLU     H954465   4.582   3.461   3.084 -0.4186  0.6027 -0.6206
  412GLU    H1054466   4.825   3.424   2.919  0.5323 -3.4538 -1.6823
  412GLU    H1154467   4.779   3.276   2.938 -2.1523  2.7864 -3.8086
  412GLU    H1254468   4.990   3.377   3.068 -0.5501  0.1273 -4.8758
  412GLU    H1354469   5.063   3.416   3.284  1.1843 -2.6854  0.5107
  412GLU    H1454470   4.928   3.185   3.418 -4.2491  2.2222 -2.9529
  412GLU    H1554471   5.104   3.205   3.379  0.4897  2.2210  1.9323
  412GLU    H1654472   5.111   3.122   3.193  0.0967  2.6494 -0.1910
  413GLU     C154473   6.338   1.854   6.246 -0.6540  1.0167  0.3130
  413GLU     C254474   6.415   1.753   6.162 -0.1545  0.0983  0.1060
  413GLU     C354475   6.408   1.601   6.198 -0.4045 -0.5681  0.1812
  413GLU     O154476   6.362   1.582   6.332 -0.8945 -1.1514  0.1345
  413GLU     C454477   6.303   1.692   6.411  0.5271  0.1520  0.1992
  413GLU     C554478   6.315   1.656   6.556  0.5973  0.0513 -1.1950
  413GLU     C654479   6.307   1.774   6.666 -0.7765  1.2364 -0.0940
  413GLU     C754480   6.257   1.723   6.802  0.9374  0.0059 -0.7076
  413GLU     C854481   6.305   1.816   6.931  0.3243 -0.1133  0.9932
  413GLU     O254482   6.203   1.862   7.019  0.4937 -0.1448  0.8308
  413GLU     C954483   6.207   1.876   7.166  0.1272 -1.2134 -0.5465
  413GLU    C1054484   6.305   1.765   7.219  0.4896 -1.0666  0.4287
  413GLU    C1154485   6.440   1.785   7.137  0.7074 -0.0708 -0.9216
  413GLU     O354486   6.398   1.738   7.007 -0.3581  0.1453  1.0262
  413GLU     O454487   6.369   1.820   6.374 -0.6196 -0.2324  0.8431
  413GLU     H154488   6.228   1.851   6.243 -0.9137 -0.7606  4.7465
  413GLU     H254489   6.521   1.776   6.144 -0.3105  2.3560  1.6997
  413GLU     H354490   6.388   1.778   6.058  1.7233  0.3090 -0.3728
  413GLU     H454491   6.513   1.572   6.199 -0.9587 -3.4451 -3.3372
  413GLU     H554492   6.197   1.690   6.383 -0.0489  1.2115  2.1272
  413GLU     H654493   6.396   1.582   6.570 -0.4377 -0.6317  1.9689
  413GLU     H754494   6.223   1.600   6.575 -1.1319  3.3679  1.2099
  413GLU     H854495   6.238   1.852   6.632 -1.2622  0.8982  0.1058
  413GLU     H954496   6.393   1.840   6.682  0.7949 -0.0229 -2.6754
  413GLU    H1054497   6.290   1.620   6.818 -0.5998 -0.5280 -0.8248
  413GLU    H1154498   6.148   1.711   6.798  0.7260  1.8084 -1.3450
  413GLU    H1254499   6.368   1.891   6.881  2.4186  0.1404  3.7824
  413GLU    H1354500   6.107   1.843   7.198 -0.3143  0.3479 -0.2048
  413GLU    H1454501   6.268   1.667   7.185  2.8579 -2.4863  1.6709
  413GLU    H1554502   6.309   1.760   7.328 -0.0900 -5.2644  0.4471
  413GLU    H1654503   6.485   1.885   7.141  1.4203 -0.3642 -1.4498
  414GLU     C154504   4.019   6.859   5.776 -0.9797 -0.6032  0.3517
  414GLU     C254505   4.131   6.839   5.881  0.2255 -0.4638  1.2495
  414GLU     C354506   4.065   6.816   6.019 -0.9987  0.4922 -0.0243
  414GLU     O154507   3.933   6.756   6.007  0.0847 -0.4132  0.1225
  414GLU     C454508   3.907   6.669   5.896  0.2504 -0.5502  0.7051
  414GLU     C554509   3.762   6.598   5.882  0.0057  0.3296 -0.9871
  414GLU     C654510   3.683   6.551   6.004  0.2149 -0.2018 -0.2386
  414GLU     C754511   3.576   6.441   5.971  0.2313 -0.8018  0.4238
  414GLU     C854512   3.442   6.436   6.064  0.2907 -0.6660  1.2554
  414GLU     O254513   3.331   6.490   5.974  0.5617  0.4029 -0.7674
  414GLU     C954514   3.192   6.432   5.975  1.4020  0.1532  0.6787
  414GLU    C1054515   3.179   6.356   6.106 -0.5482  0.3710 -0.4196
  414GLU    C1154516   3.291   6.273   6.173  0.8767  1.1595  0.3591
  414GLU     O354517   3.427   6.310   6.126 -0.3498 -0.3902 -0.1210
  414GLU     O454518   3.938   6.734   5.760  0.6131  0.5542  0.1664
  414GLU     H154519   3.955   6.945   5.797 -1.4163  0.4252 -4.1022
  414GLU     H254520   4.176   6.939   5.889  0.0812 -0.3679  0.8950
  414GLU     H354521   4.198   6.756   5.855  0.4165 -0.4091  1.5620
  414GLU     H454522   4.056   6.917   6.060 -2.4445  0.1555  0.5452
  414GLU     H554523   3.981   6.588   5.899  1.7653  0.6868 -0.8497
  414GLU     H654524   3.754   6.510   5.818 -5.6750 -0.1688 -0.1625
  414GLU     H754525   3.700   6.682   5.847 -1.3168  0.1668  0.7941
  414GLU     H854526   3.640   6.640   6.052  4.1318  1.0204  1.3223
  414GLU     H954527   3.746   6.508   6.082  2.1916  1.7114 -0.6657
  414GLU    H1054528   3.632   6.349   5.992 -0.6143 -1.6960 -1.0301
  414GLU    H1154529   3.559   6.415   5.866  1.4948  3.4468 -1.0199
  414GLU    H1254530   3.463   6.519   6.132 -1.0516  2.6803 -2.0574
  414GLU    H1354531   3.179   6.344   5.911 -1.8645 -0.5075  2.0349
  414GLU    H1454532   3.087   6.296   6.112 -1.8663  2.2123 -1.4838
  414GLU    H1554533   3.158   6.437   6.176 -0.8737 -1.2122  1.4230
  414GLU    H1654534   3.287   6.306   6.277  1.2647 -0.7592  1.0085
  415GLU     C154535   4.654   7.482   1.845 -0.1943  0.4254 -0.5452
  415GLU     C254536   4.583   7.610   1.882  0.2029  0.5152 -0.4197
  415GLU     C354537   4.590   0.036   1.782  0.0266 -0.1732 -0.1414
  415GLU     O154538   4.536   7.671   1.658 -0.1002 -0.3412  1.1306
  415GLU     C454539   4.564   7.521   1.624  0.4280  0.3213  0.0793
  415GLU     C554540   4.592   7.486   1.466  1.2601 -0.1390 -0.3878
  415GLU     C654541   4.614   7.336   1.449 -0.7479 -0.1697 -0.0381
  415GLU     C754542   4.629   7.265   1.311  1.3959 -0.4737  0.9437
  415GLU     C854543   4.579   7.118   1.312  0.7158  0.1059 -0.7064
  415GLU     O254544   4.575   7.084   1.168  0.7546 -0.6344 -0.8004
  415GLU     C954545   4.493   6.965   1.137  0.4199 -0.0773  1.2767
  415GLU    C1054546   4.522   6.856   1.253  0.7014 -0.4047 -0.4166
  415GLU    C1154547   4.650   6.883   1.328 -0.7317  0.0625  0.9428
  415GLU     O354548   4.660   7.021   1.386  0.7321  0.2722  0.0138
  415GLU     O454549   4.675   7.473   1.707  0.7879  0.0959 -0.2542
  415GLU     H154550   4.586   7.398   1.864 -1.6483  1.9541  1.3582
  415GLU     H254551   4.584   7.625   1.990 -1.4504 -2.0019  0.0297
  415GLU     H354552   4.476   7.586   1.875  0.2786 -0.1794  0.5442
  415GLU     H454553   4.696   0.060   1.771  0.8564 -2.5471  1.8630
  415GLU     H554554   4.474   7.461   1.640 -0.7614  0.8481 -3.6745
  415GLU     H654555   4.668   7.561   1.438 -1.9372  2.9798 -1.3806
  415GLU     H754556   4.494   7.516   1.428  0.2534  0.4808  2.4355
  415GLU     H854557   4.544   7.277   1.509  0.8041  0.4588  2.5733
  415GLU     H954558   4.709   7.321   1.503 -0.2696  4.7242  1.0205
  415GLU    H1054559   4.729   7.237   1.277 -0.6987 -4.6261 -2.9039
  415GLU    H1154560   4.585   7.322   1.229  1.6910 -0.4127  0.8269
  415GLU    H1254561   4.477   7.134   1.349  0.8557  1.3511 -0.8026
  415GLU    H1354562   4.390   6.994   1.162  1.3035  0.9192  4.2125
  415GLU    H1454563   4.523   6.758   1.204  1.0676 -1.1368  0.9978
  415GLU    H1554564   4.443   6.844   1.328  1.9356 -2.0203  0.6894
  415GLU    H1654565   4.733   6.889   1.256  1.5884 -0.5765  3.3903
  416GLU     C154566   0.680   2.515   4.932  0.5419  0.4034 -0.6295
  416GLU     C254567   0.734   2.461   5.073 -0.1256 -0.3036 -0.8024
  416GLU     C354568   0.888   2.451   5.097  1.4601 -0.5173 -0.4493
  416GLU     O154569   0.952   2.446   4.970 -0.0347  0.4801  0.4175
  416GLU     C454570   0.915   2.555   4.887  0.6484 -0.4328 -1.3300
  416GLU     C554571   0.999   2.557   4.758 -0.8143  0.0749 -0.6359
  416GLU     C654572   0.966   2.662   4.657  0.2571 -0.8327  0.0199
  416GLU     C754573   1.081   2.663   4.556 -0.1260  0.7795 -0.0828
  416GLU     C854574   1.215   2.739   4.580  0.0938 -0.5662  1.2095
  416GLU     O254575   1.321   2.662   4.621  0.7173  0.2920  0.4719
  416GLU     C954576   1.452   2.655   4.554  0.8085 -0.9119  0.0385
  416GLU    C1054577   1.486   2.790   4.467  0.6799 -0.5315 -0.9424
  416GLU    C1154578   1.359   2.876   4.465  0.1553 -0.8270 -0.2610
  416GLU     O354579   1.259   2.781   4.441 -0.6037 -0.6648  0.2565
  416GLU     O454580   0.786   2.520   4.835 -1.4232 -1.2511  0.6580
  416GLU     H154581   0.595   2.456   4.896  1.4941  0.0082 -2.3184
  416GLU     H254582   0.682   2.367   5.094 -3.5500  1.3996 -0.9802
  416GLU     H354583   0.706   2.529   5.155 -1.1979  0.9141 -2.1414
  416GLU     H454584   0.917   2.541   5.153 -1.1133  1.6348 -2.3254
  416GLU     H554585   0.924   2.649   4.941 -2.8943 -1.1624  0.8728
  416GLU     H654586   0.984   2.458   4.712  2.3796 -1.4361  1.1691
  416GLU     H754587   1.108   2.547   4.771 -0.7481  2.0694  0.8216
  416GLU     H854588   0.971   2.757   4.711 -2.4921 -0.8141  0.4145
  416GLU     H954589   0.867   2.660   4.609 -1.4677 -0.8189  3.2753
  416GLU    H1054590   1.038   2.707   4.465  0.8321  3.1178  0.5189
  416GLU    H1154591   1.100   2.556   4.544 -5.7495 -0.8023  1.6822
  416GLU    H1254592   1.192   2.837   4.624 -4.5801 -1.2576  0.7906
  416GLU    H1354593   1.438   2.590   4.467  2.3392 -2.0393  0.5816
  416GLU    H1454594   1.516   2.751   4.369  0.7794 -2.6400 -0.1164
  416GLU    H1554595   1.574   2.832   4.519  1.0251 -2.8047  0.4270
  416GLU    H1654596   1.349   2.931   4.559  3.5321 -1.1843  0.4365
  417GLU     C154597   3.938   2.810   4.289  0.0370 -0.9441  0.4263
  417GLU     C254598   3.983   2.686   4.211  0.0257 -0.7262  0.2441
  417GLU     C354599   3.848   2.612   4.183 -1.3248 -0.1471 -0.7803
  417GLU     O154600   3.766   2.698   4.100  0.1015 -0.2173 -0.4063
  417GLU     C454601   3.773   2.843   4.105  0.5078  0.6962  0.2967
  417GLU     C554602   3.637   2.917   4.091  0.9433  1.0743 -0.0051
  417GLU     C654603   3.534   2.899   4.203  0.3025  0.5123  0.5459
  417GLU     C754604   3.395   2.954   4.167  0.1755 -1.4981 -0.5222
  417GLU     C854605   3.295   2.846   4.106 -0.2832  0.1170  0.4635
  417GLU     O254606   3.380   2.756   4.028 -0.5826  0.5828 -0.9454
  417GLU     C954607   3.358   2.617   4.011 -0.5441  0.4440 -0.0310
  417GLU    C1054608   3.348   2.562   4.151  0.8872 -0.2522 -0.5917
  417GLU    C1154609   3.214   2.635   4.204 -0.6455 -0.5957 -0.3849
  417GLU     O354610   3.240   2.776   4.218  1.3786 -0.0655 -0.3175
  417GLU     O454611   3.829   2.881   4.227  1.0012 -0.5944  0.1092
  417GLU     H154612   3.910   2.793   4.394 -0.2365  1.6532  0.8437
  417GLU     H254613   4.053   2.621   4.265  1.2816 -1.3686 -2.0377
  417GLU     H354614   4.036   2.713   4.119  2.7046 -0.4735  1.7467
  417GLU     H454615   3.803   2.586   4.279  0.5567 -0.3867  0.0698
  417GLU     H554616   3.831   2.866   4.015 -2.4165  0.7623 -1.7134
  417GLU     H654617   3.597   2.889   3.993 -4.5884 -0.4642  2.3179
  417GLU     H754618   3.652   3.025   4.098  0.5856  1.0868  6.6515
  417GLU     H854619   3.569   2.952   4.292  1.9836  3.9847 -1.9595
  417GLU     H954620   3.523   2.793   4.230  2.1120  0.0781 -0.3042
  417GLU    H1054621   3.381   3.033   4.093  3.2149  1.0504  1.3445
  417GLU    H1154622   3.353   3.003   4.256  0.2873  4.5236 -3.2792
  417GLU    H1254623   3.208   2.880   4.049  0.0338 -2.9288 -2.1363
  417GLU    H1354624   3.263   2.609   3.957 -1.5767  0.1348  1.7529
  417GLU    H1454625   3.435   2.589   4.213  0.9766 -0.0451 -0.8039
  417GLU    H1554626   3.345   2.453   4.137 -2.1786 -0.3451  0.2578
  417GLU    H1654627   3.127   2.608   4.142 -1.0126 -3.2937  1.1443
  418GLU     C154628   2.082   4.305   1.127  1.0711 -0.6129 -0.1233
  418GLU     C254629   2.152   4.387   1.243  0.7542  0.0191 -0.1556
  418GLU     C354630   2.297   4.435   1.213  0.1025  0.6447 -0.7356
  418GLU     O154631   2.309   4.455   1.078  0.8838 -0.6699  0.2498
  418GLU     C454632   2.267   4.364   0.973  0.1959  0.1256 -1.3043
  418GLU     C554633   2.409   4.286   0.950  0.7230 -0.0007  0.3519
  418GLU     C654634   2.498   4.390   0.877 -1.0050  0.2874  0.7987
  418GLU     C754635   2.549   4.353   0.728 -0.0845 -0.1290 -0.9586
  418GLU     C854636   2.461   4.268   0.642 -0.2663  0.9164  0.0842
  418GLU     O254637   2.316   4.281   0.650  0.5138 -1.0675  0.2625
  418GLU     C954638   2.255   4.163   0.601  0.7966  0.1870  0.7409
  418GLU    C1054639   2.302   4.145   0.452 -0.8223  0.2478 -0.4137
  418GLU    C1154640   2.452   4.183   0.415  0.7079 -0.0897 -1.0860
  418GLU     O354641   2.505   4.271   0.511  0.3497  0.4817 -0.3700
  418GLU     O454642   2.174   4.266   1.027 -0.2324 -0.1518 -0.1684
  418GLU     H154643   2.003   4.362   1.077  0.3024  0.6400  2.3552
  418GLU     H254644   2.149   4.333   1.338  1.0933 -0.5576 -0.4645
  418GLU     H354645   2.082   4.468   1.263  0.5386 -0.4009  0.8555
  418GLU     H454646   2.363   4.349   1.227  0.4699  0.4562 -3.1559
  418GLU     H554647   2.232   4.420   0.886  0.2554 -2.9380 -3.4598
  418GLU     H654648   2.389   4.192   0.896 -0.9411 -0.4275  1.6205
  418GLU     H754649   2.442   4.257   1.050  1.7794  2.1271  0.6739
  418GLU     H854650   2.595   4.402   0.926  3.3145  0.5936 -6.3313
  418GLU     H954651   2.450   4.487   0.857 -2.2014 -0.5705 -0.8045
  418GLU    H1054652   2.640   4.298   0.754  0.6401  1.1400 -0.7067
  418GLU    H1154653   2.583   4.432   0.660  1.6860 -1.0196 -1.1917
  418GLU    H1254654   2.492   4.168   0.673 -0.8115  1.2563  1.8357
  418GLU    H1354655   2.285   4.070   0.652  0.7998  0.0589  0.5066
  418GLU    H1454656   2.257   4.228   0.397  2.2214  1.0263 -1.9965
  418GLU    H1554657   2.274   4.041   0.428  2.8483 -1.3902  1.5478
  418GLU    H1654658   2.424   4.239   0.325 -0.2462  4.4804  1.7054
  419GLU     C154659   7.722   1.625   6.099 -0.5807  0.4335 -0.5363
  419GLU     C254660   7.624   1.693   6.196  0.5060 -0.5526  0.4706
  419GLU     C354661   7.489   1.738   6.137  1.3717  1.1143  1.0775
  419GLU     O154662   7.421   1.614   6.100 -0.4526 -0.0013  0.8468
  419GLU     C454663   7.506   1.517   6.019  0.7677 -1.0270 -0.7126
  419GLU     C554664   7.439   1.498   5.883 -0.3218 -0.5331 -0.3908
  419GLU     C654665   7.300   1.555   5.850 -0.5074 -0.2247 -0.0767
  419GLU     C754666   7.288   1.696   5.812 -0.2284 -0.5175 -0.0422
  419GLU     C854667   7.307   1.733   5.668  0.9699  0.4963 -0.1005
  419GLU     O254668   7.215   1.686   5.581  0.3642  0.2454  0.1138
  419GLU     C954669   7.274   1.687   5.442  0.1382  0.3291  1.1058
  419GLU    C1054670   7.334   1.822   5.412 -0.2412  0.1762  0.3888
  419GLU    C1154671   7.397   1.908   5.529  0.0357 -0.0655  0.5044
  419GLU     O354672   7.319   1.874   5.646 -0.0331  0.1476 -0.2952
  419GLU     O454673   7.643   1.561   5.992 -0.1694  0.4288  0.8911
  419GLU     H154674   7.760   1.533   6.145  1.6158  1.6192  0.1551
  419GLU     H254675   7.679   1.780   6.233 -1.4488 -0.0412  2.4343
  419GLU     H354676   7.604   1.636   6.288  2.5042 -4.4603 -1.2898
  419GLU     H454677   7.500   1.783   6.037 -1.5108  1.6010  0.9074
  419GLU     H554678   7.506   1.419   6.067  1.3988 -0.9562 -0.5473
  419GLU     H654679   7.429   1.391   5.862  0.3757 -1.0817  1.7979
  419GLU     H754680   7.503   1.552   5.811 -3.7332  2.2678 -1.6253
  419GLU     H854681   7.223   1.548   5.928 -0.1338 -2.9500  0.1368
  419GLU     H954682   7.257   1.493   5.771  0.9771 -1.7152  0.2321
  419GLU    H1054683   7.360   1.750   5.875 -1.7540  1.6784 -0.0707
  419GLU    H1154684   7.184   1.725   5.828 -1.2385 -3.2259 -1.1721
  419GLU    H1254685   7.412   1.709   5.646  2.4529  1.6996  4.4966
  419GLU    H1354686   7.184   1.663   5.384  1.1352 -0.3943 -0.1804
  419GLU    H1454687   7.253   1.891   5.387 -1.0404 -0.5807  0.8574
  419GLU    H1554688   7.416   1.814   5.340  0.1759 -2.4089  1.0477
  419GLU    H1654689   7.502   1.877   5.537 -0.1617 -0.6746  0.8256
  420GLU     C154690   6.396   1.878   5.604 -0.3025  0.2375 -0.8420
  420GLU     C254691   6.341   1.738   5.652  0.0716  0.5583  1.1565
  420GLU     C354692   6.454   1.631   5.612  0.4631 -0.8591 -0.5208
  420GLU     O154693   6.481   1.650   5.471  0.3022 -0.1869  0.5069
  420GLU     C454694   6.540   1.785   5.445 -1.0558  0.2136 -0.2305
  420GLU     C554695   6.627   1.812   5.314 -0.2956  0.8875 -0.2088
  420GLU     C654696   6.779   1.849   5.335 -1.2060 -0.6582  0.3058
  420GLU     C754697   6.842   1.964   5.244 -0.0904  0.5155 -1.0205
  420GLU     C854698   6.999   1.994   5.246 -0.0778  0.1298  0.3028
  420GLU     O254699   7.039   2.078   5.146  0.3451 -0.7592 -0.4613
  420GLU     C954700   7.140   2.177   5.158  1.0908  0.6978 -0.4192
  420GLU    C1054701   7.128   2.250   5.296  0.2034 -0.6984  0.0431
  420GLU    C1154702   7.036   2.190   5.401 -0.9879 -0.1567  0.2798
  420GLU     O354703   7.050   2.053   5.372  0.1365 -0.7873 -0.5405
  420GLU     O454704   6.429   1.873   5.470  0.7034 -0.3797  0.4361
  420GLU     H154705   6.490   1.909   5.653  0.6298 -2.1264 -1.0243
  420GLU     H254706   6.243   1.717   5.608  1.9572 -0.7006 -3.0182
  420GLU     H354707   6.314   1.747   5.758 -1.9313  0.7308  0.6772
  420GLU     H454708   6.538   1.640   5.682 -1.0779 -3.3351  1.8757
  420GLU     H554709   6.604   1.827   5.524  1.6566 -2.1638 -1.0151
  420GLU     H654710   6.585   1.898   5.260 -1.7340 -0.0782 -0.6864
  420GLU     H754711   6.634   1.729   5.243  3.2587  1.5913 -0.8559
  420GLU     H854712   6.837   1.757   5.322 -1.1361 -0.4933 -0.6105
  420GLU     H954713   6.810   1.884   5.434  1.8301 -2.6132  0.1593
  420GLU    H1054714   6.794   2.054   5.283  2.1436  0.7480  1.4877
  420GLU    H1154715   6.805   1.954   5.141  0.8102  1.5498 -1.4617
  420GLU    H1254716   7.066   1.910   5.223 -1.8638 -2.6121  4.1443
  420GLU    H1354717   7.116   2.247   5.077 -1.1829  0.4117 -0.0421
  420GLU    H1454718   7.086   2.346   5.264  1.2267 -0.3862 -0.4131
  420GLU    H1554719   7.223   2.289   5.334 -0.8218  2.0523 -0.0033
  420GLU    H1654720   6.933   2.224   5.382  0.9967  6.6911 -1.0357
  421GLU     C154721   1.372   1.997   3.647 -0.7202  0.8629 -0.9117
  421GLU     C254722   1.461   2.115   3.594  0.9416 -0.0544  1.0371
  421GLU     C354723   1.604   2.090   3.601 -0.6176  0.2344  0.0193
  421GLU     O154724   1.635   1.953   3.549  0.6449  0.0607  0.7050
  421GLU     C454725   1.530   1.870   3.481 -0.2112 -0.1499 -0.7965
  421GLU     C554726   1.574   1.709   3.467  0.7286  0.5022 -0.0965
  421GLU     C654727   1.622   1.644   3.325 -0.4930 -0.3749 -0.5441
  421GLU     C754728   1.687   1.503   3.339 -1.1614 -1.9140 -0.6827
  421GLU     C854729   1.728   1.414   3.206 -0.2992  0.1243 -0.3537
  421GLU     O254730   1.854   1.436   3.137  0.5616  0.2900  0.2538
  421GLU     C954731   1.916   1.342   3.040  0.2403 -0.2126  1.1784
  421GLU    C1054732   1.815   1.234   3.000  0.6993  1.1483  1.0418
  421GLU    C1154733   1.737   1.182   3.121  0.2038 -0.2764  0.1825
  421GLU     O354734   1.722   1.267   3.233 -0.3165  0.1300 -0.7972
  421GLU     O454735   1.398   1.884   3.564 -0.5268  0.5126 -0.5801
  421GLU     H154736   1.412   1.968   3.744 -2.0791 -0.2935 -0.6628
  421GLU     H254737   1.427   2.210   3.637 -0.3126 -0.7896  1.7234
  421GLU     H354738   1.430   2.115   3.489  3.7136 -3.0770  0.0376
  421GLU     H454739   1.658   2.162   3.539  0.3522  0.1800  0.7848
  421GLU     H554740   1.498   1.917   3.387 -1.9747 -0.0434 -0.1890
  421GLU     H654741   1.478   1.666   3.500  0.9967 -0.9013 -1.0635
  421GLU     H754742   1.646   1.668   3.538  0.0021 -1.6343 -0.5225
  421GLU     H854743   1.693   1.715   3.282 -0.6157  2.6088  3.5710
  421GLU     H954744   1.542   1.666   3.253  0.4250  0.1332 -1.4237
  421GLU    H1054745   1.611   1.440   3.385 -1.5242  1.3027  3.6871
  421GLU    H1154746   1.773   1.509   3.407  0.0328 -2.4094 -2.0861
  421GLU    H1254747   1.644   1.436   3.140 -0.9929 -0.3145  0.3662
  421GLU    H1354748   1.945   1.386   2.944 -1.4021 -3.4679 -1.0354
  421GLU    H1454749   1.863   1.159   2.936  0.4315  1.1647  0.8215
  421GLU    H1554750   1.760   1.291   2.925  0.7932  1.3279  1.1076
  421GLU    H1654751   1.634   1.153   3.099 -0.2919  1.2765  0.2975
  422GLU     C154752   1.532   4.518   1.323 -0.3517  0.5978  0.1253
  422GLU     C254753   1.473   4.616   1.228  0.0886 -0.4323 -0.5126
  422GLU     C354754   1.515   4.623   1.077  0.4259  0.3350 -0.1290
  422GLU     O154755   1.655   4.633   1.077 -0.3259  0.4958  0.5700
  422GLU     C454756   1.742   4.566   1.174 -0.0627 -0.5892 -0.3041
  422GLU     C554757   1.839   4.669   1.212  0.3860 -0.6941  0.4143
  422GLU     C654758   1.944   4.707   1.102 -0.5643  0.4781 -0.2716
  422GLU     C754759   2.034   4.823   1.142  0.7101 -0.4198  0.5479
  422GLU     C854760   2.163   4.833   1.060 -0.0637 -0.1179  1.3897
  422GLU     O254761   2.139   4.940   0.959  0.5379  0.4971 -0.2666
  422GLU     C954762   2.220   5.059   0.962 -1.0011 -0.4338 -0.5737
  422GLU    C1054763   2.366   5.009   0.977  0.2827  0.5666 -0.0780
  422GLU    C1154764   2.399   4.913   1.086 -1.2303  0.0365 -0.0605
  422GLU     O354765   2.276   4.872   1.142  0.7021 -0.7084 -0.8953
  422GLU     O454766   1.679   4.521   1.306 -0.1739 -0.4066  0.2430
  422GLU     H154767   1.511   4.563   1.421  0.8285  2.4028 -0.3997
  422GLU     H254768   1.490   4.715   1.273 -0.6767 -0.2221 -0.6586
  422GLU     H354769   1.363   4.618   1.232  0.0106  0.9894 -2.1665
  422GLU     H454770   1.477   4.716   1.033 -2.5026 -1.0607 -0.7377
  422GLU     H554771   1.794   4.479   1.133  0.8849 -0.8683  1.3855
  422GLU     H654772   1.900   4.606   1.277  0.4367 -1.4556 -0.3655
  422GLU     H754773   1.789   4.755   1.259  1.6244  0.6358 -0.5711
  422GLU     H854774   1.895   4.724   1.006 -1.3936 -1.2134 -0.1929
  422GLU     H954775   1.988   4.610   1.075 -2.6354 -0.9054  1.0576
  422GLU    H1054776   2.065   4.815   1.247 -1.6846  1.8290  1.5458
  422GLU    H1154777   1.974   4.912   1.122 -1.7213 -0.7447  5.1732
  422GLU    H1254778   2.167   4.750   0.989  0.0715  1.7644 -0.9477
  422GLU    H1354779   2.190   5.099   1.060 -1.5886 -1.3925 -0.3472
  422GLU    H1454780   2.423   5.102   0.986  1.2762 -0.0855  0.5376
  422GLU    H1554781   2.395   4.971   0.878 -3.1229 -0.5979 -0.7619
  422GLU    H1654782   2.453   4.830   1.038  0.5252  2.5277 -2.7278
  423GLU     C154783   2.090   0.590   7.175 -1.3308 -0.2201  0.0422
  423GLU     C254784   2.020   0.566   7.041 -0.1193  0.4543 -0.0869
  423GLU     C354785   1.893   0.660   7.048  0.4439 -0.1956  0.8335
  423GLU     O154786   1.947   0.796   7.041  0.1171 -0.0005 -0.1360
  423GLU     C454787   2.078   0.832   7.096  0.3374  0.3592 -0.7780
  423GLU     C554788   2.090   0.990   7.167  0.7248  0.0187  0.6187
  423GLU     C654789   2.094   1.142   7.092  0.1181  0.0355 -0.1727
  423GLU     C754790   2.167   1.260   7.162 -0.2440  0.0500  0.8301
  423GLU     C854791   2.176   1.422   7.113  0.5974 -0.0323 -0.6304
  423GLU     O254792   2.127   1.459   6.982  0.0036  0.4934  1.2885
  423GLU     C954793   2.162   1.596   6.941  0.7903 -0.7136  0.1019
  423GLU    C1054794   2.096   1.702   7.038 -0.8781 -0.4846 -0.8453
  423GLU    C1154795   2.107   1.673   7.198 -0.2540  0.3315  0.6040
  423GLU     O354796   2.138   1.524   7.221  0.5182  0.8853 -0.7707
  423GLU     O454797   2.114   0.735   7.200 -0.3490 -0.3377 -0.0268
  423GLU     H154798   2.018   0.538   7.239 -1.7708  1.4304  0.9201
  423GLU     H254799   1.984   0.463   7.052  0.9166  0.3045  2.8424
  423GLU     H354800   2.087   0.585   6.956  0.2542  1.2219  0.3691
  423GLU     H454801   1.841   0.645   7.144  1.9223 -7.9369  1.0594
  423GLU     H554802   2.152   0.830   7.015  3.3156  0.4432  1.7218
  423GLU     H654803   2.191   0.972   7.206  1.1882 -0.9515 -0.9308
  423GLU     H754804   2.024   1.000   7.254  1.4334 -1.6334  1.3802
  423GLU     H854805   1.991   1.180   7.087 -0.8483 -1.8829  2.6935
  423GLU     H954806   2.116   1.135   6.984 -0.7652  1.2620 -0.4545
  423GLU    H1054807   2.271   1.226   7.170 -0.1631 -0.1699 -0.8066
  423GLU    H1154808   2.146   1.263   7.269 -2.6440  3.2666  0.4223
  423GLU    H1254809   2.283   1.429   7.091  1.0310  0.0408  1.3268
  423GLU    H1354810   2.269   1.611   6.959  0.8138 -0.3566 -0.3180
  423GLU    H1454811   1.993   1.687   7.002  0.0504 -1.3383 -3.3687
  423GLU    H1554812   2.105   1.799   6.987 -0.2040  0.8052  1.5996
  423GLU    H1654813   2.000   1.667   7.224  0.1524 -1.0696  2.1200
  424GLU     C154814   2.901   0.882   5.204  0.1938 -1.4393 -0.2792
  424GLU     C254815   2.971   0.981   5.113  0.2133 -0.4840  0.3028
  424GLU     C354816   2.886   1.098   5.077  0.6552  1.1862 -0.2940
  424GLU     O154817   2.739   1.064   5.108  0.3025 -0.2102 -0.2591
  424GLU     C454818   2.721   1.034   5.256 -0.4006 -0.7386  0.6006
  424GLU     C554819   2.566   1.020   5.311  0.5442  0.1976 -0.0380
  424GLU     C654820   2.502   1.117   5.411  0.0916  0.6833  0.0067
  424GLU     C754821   2.345   1.114   5.470  0.7789 -0.8446 -0.0548
  424GLU     C854822   2.281   1.234   5.548 -0.0783  0.1985  0.0461
  424GLU     O254823   2.147   1.257   5.617 -0.6656 -0.0850 -0.1018
  424GLU     C954824   2.097   1.408   5.645 -0.3374  0.1760  0.8210
  424GLU    C1054825   2.232   1.471   5.694 -1.1381  1.1915  1.1312
  424GLU    C1154826   2.379   1.427   5.652  1.5342  0.1273 -0.3282
  424GLU     O354827   2.385   1.291   5.644  0.1193 -0.1311 -0.4630
  424GLU     O454828   2.815   0.941   5.309  1.4652 -1.0279 -0.0141
  424GLU     H154829   2.841   0.814   5.143 -1.2852 -2.6273  2.3302
  424GLU     H254830   3.003   0.928   5.023 -2.2675  1.4064 -1.8440
  424GLU     H354831   3.067   1.018   5.152  2.7043 -5.6277 -0.1140
  424GLU     H454832   2.906   1.181   5.146  1.1720  0.3692  0.5812
  424GLU     H554833   2.757   1.131   5.291  1.5006 -1.7003  1.4865
  424GLU     H654834   2.541   0.915   5.333 -1.8454  0.9893  1.3809
  424GLU     H754835   2.508   1.024   5.218  0.5702 -1.1396 -0.1314
  424GLU     H854836   2.529   1.205   5.352  3.9309  0.3575  1.0177
  424GLU     H954837   2.573   1.104   5.494  1.2095 -4.5581 -1.3869
  424GLU    H1054838   2.338   1.023   5.530  2.6517  0.6554  2.6419
  424GLU    H1154839   2.277   1.113   5.383  0.1587 -1.0801  0.4226
  424GLU    H1254840   2.291   1.305   5.464 -4.8765 -2.0774 -2.8766
  424GLU    H1354841   2.089   1.443   5.541  4.8773 -0.7776 -0.1621
  424GLU    H1454842   2.226   1.460   5.803 -4.2274  1.1601  1.0456
  424GLU    H1554843   2.225   1.575   5.660  0.8760  0.2845 -2.5787
  424GLU    H1654844   2.389   1.479   5.556  0.4349  1.9647  0.5020
  425GLU     C154845   5.440   3.183   2.940 -1.3128  0.4526  0.6276
  425GLU     C254846   5.567   3.188   2.833  0.3136 -0.4187  1.3666
  425GLU     C354847   5.537   3.196   2.680  0.3705 -0.6479 -0.7115
  425GLU     O154848   5.398   3.150   2.658  0.1919 -0.0175 -0.3416
  425GLU     C454849   5.288   3.196   2.747 -0.5406  0.1051  0.2652
  425GLU     C554850   5.177   3.083   2.765  0.6295 -0.3593  0.7788
  425GLU     C654851   5.033   3.120   2.809 -0.4849  0.1508 -0.0966
  425GLU     C754852   4.939   2.999   2.812  0.3776  0.8458 -0.3192
  425GLU     C854853   4.796   2.971   2.874  0.2319  0.0525 -0.5534
  425GLU     O254854   4.771   3.030   2.999 -1.1015  0.6429  0.4839
  425GLU     C954855   4.658   3.000   3.086  0.1037  0.1816  0.8145
  425GLU    C1054856   4.522   2.999   2.991 -1.1753 -0.9247 -0.3609
  425GLU    C1154857   4.548   2.973   2.838 -0.0520  0.6054 -0.8997
  425GLU     O354858   4.685   2.995   2.781  0.3290  0.1245  0.2282
  425GLU     O454859   5.337   3.249   2.869 -0.1769 -0.1071  0.3421
  425GLU     H154860   5.413   3.081   2.968  3.9209 -1.2263  0.5782
  425GLU     H254861   5.641   3.110   2.853  0.7678 -0.7768 -1.3350
  425GLU     H354862   5.618   3.279   2.866  1.2668 -0.1406 -0.6875
  425GLU     H454863   5.528   3.299   2.646  0.6652  0.2220  1.6653
  425GLU     H554864   5.258   3.290   2.699  1.8801  0.8410  0.0330
  425GLU     H654865   5.220   3.006   2.830 -0.2812 -1.5442  0.0146
  425GLU     H754866   5.182   3.031   2.669 -0.0704  1.3536 -0.2310
  425GLU     H854867   4.975   3.192   2.750 -0.9035  0.4755  0.7003
  425GLU     H954868   5.045   3.166   2.908  3.3149 -1.5760  0.4364
  425GLU    H1054869   5.002   2.908   2.817  0.3757  0.8963  2.5646
  425GLU    H1154870   4.912   2.982   2.707  1.6942  0.8814 -0.6876
  425GLU    H1254871   4.783   2.863   2.878 -2.7606  0.3498 -0.4463
  425GLU    H1354872   4.673   2.892   3.099  3.0624  0.1561 -1.6157
  425GLU    H1454873   4.489   3.104   2.995 -4.1098 -1.7885  2.0692
  425GLU    H1554874   4.457   2.922   3.033 -0.1458 -2.0024 -0.6905
  425GLU    H1654875   4.518   2.868   2.841 -2.4329  1.2282  1.6746
  426GLU     C154876   6.580   2.417   5.318 -0.4438  0.7431 -0.6953
  426GLU     C254877   6.688   2.535   5.337 -0.1944 -0.1183 -0.2101
  426GLU     C354878   6.819   2.479   5.387 -0.3052  0.9164 -0.1486
  426GLU     O154879   6.797   2.392   5.504  0.6668 -0.1261 -0.2802
  426GLU     C454880   6.691   2.285   5.494 -0.0871 -0.6865 -0.3801
  426GLU     C554881   6.671   2.205   5.624 -0.5390  0.2689 -0.2626
  426GLU     C654882   6.720   2.056   5.620  0.0395 -0.4598  1.7096
  426GLU     C754883   6.726   1.969   5.748 -1.3819  0.2600 -0.8567
  426GLU     C854884   6.817   1.843   5.725  1.4583  0.4675  0.9225
  426GLU     O254885   6.831   1.769   5.853  0.1542 -0.4087  0.1654
  426GLU     C954886   6.848   1.619   5.846 -0.1391  0.4004 -0.0787
  426GLU    C1054887   6.932   1.578   5.717 -0.5209  0.0062  0.4969
  426GLU    C1154888   6.877   1.641   5.579  0.1253  0.8807 -1.6555
  426GLU     O354889   6.783   1.743   5.622 -0.2278 -0.0456 -0.8079
  426GLU     O454890   6.567   2.345   5.446  0.6241 -0.0849 -0.5035
  426GLU     H154891   6.491   2.474   5.291  0.4792  1.7108 -1.8191
  426GLU     H254892   6.647   2.615   5.400  4.2728  4.2822 -2.3213
  426GLU     H354893   6.697   2.586   5.241  1.4404  1.3888  0.6787
  426GLU     H454894   6.863   2.418   5.307 -1.6514  1.1689 -1.1157
  426GLU     H554895   6.727   2.214   5.418 -0.3521  0.0202 -1.1911
  426GLU     H654896   6.568   2.197   5.662 -0.7490 -1.5522 -1.1173
  426GLU     H754897   6.727   2.263   5.698 -0.2294 -3.1190  2.3980
  426GLU     H854898   6.824   2.056   5.584  1.1385 -0.5437  4.6187
  426GLU     H954899   6.650   2.001   5.556  2.0895  0.0257 -1.1192
  426GLU    H1054900   6.633   1.945   5.801 -1.6620 -1.5943 -2.0779
  426GLU    H1154901   6.783   2.024   5.824 -0.5540  1.7184 -2.4581
  426GLU    H1254902   6.910   1.893   5.697 -1.0311  5.5808  0.7360
  426GLU    H1354903   6.748   1.578   5.829  0.2022  0.8718 -4.7459
  426GLU    H1454904   6.928   1.468   5.717  1.6714 -0.1085  1.3465
  426GLU    H1554905   7.037   1.608   5.725  1.0417 -4.1769 -1.3700
  426GLU    H1654906   6.955   1.684   5.515  0.6314  0.8862 -1.0427
  427GLU     C154907   0.739   2.176   6.551  0.7068  0.0122  0.8350
  427GLU     C254908   0.861   2.081   6.564  0.9850  0.1945 -0.4166
  427GLU     C354909   0.864   1.968   6.459  0.6964  0.3970  0.3956
  427GLU     O154910   0.855   2.034   6.329  0.2751  0.3302 -0.4326
  427GLU     C454911   0.848   2.178   6.326  1.2755 -0.6819 -0.0555
  427GLU     C554912   0.817   2.241   6.183 -0.4037 -0.5196 -0.1324
  427GLU     C654913   0.793   2.396   6.179 -0.9055 -0.2573 -0.1932
  427GLU     C754914   0.642   2.421   6.192  0.2609  0.1042  0.1329
  427GLU     C854915   0.565   2.555   6.132 -0.9152  0.1514  0.3462
  427GLU     O254916   0.571   2.557   5.992  1.0430  0.0020 -1.2771
  427GLU     C954917   0.522   2.657   5.916  0.4621 -0.7204  0.7642
  427GLU    C1054918   0.410   2.741   5.993 -0.9144 -0.0108 -0.1788
  427GLU    C1154919   0.345   2.676   6.109 -0.2201  1.5429 -0.1690
  427GLU     O354920   0.431   2.571   6.176  0.0073  0.3042  1.1465
  427GLU     O454921   0.754   2.233   6.425 -0.7791  0.0030 -0.1985
  427GLU     H154922   0.645   2.119   6.550  0.0926  0.9727 -0.9360
  427GLU     H254923   0.878   2.032   6.660  6.2222 -1.8823 -2.0308
  427GLU     H354924   0.946   2.151   6.563 -0.9323  2.6505 -0.0016
  427GLU     H454925   0.776   1.906   6.477  1.9615 -2.2815 -1.8799
  427GLU     H554926   0.946   2.211   6.361  0.1982  1.3464  1.2584
  427GLU     H654927   0.726   2.196   6.141  0.0182 -0.6181 -0.9680
  427GLU     H754928   0.903   2.210   6.122 -0.4274  1.1412 -1.0708
  427GLU     H854929   0.828   2.458   6.095  0.5199  1.8967  1.8762
  427GLU     H954930   0.850   2.449   6.256 -0.1756 -3.4475  1.6552
  427GLU    H1054931   0.611   2.425   6.298  3.3644  3.4370  1.0868
  427GLU    H1154932   0.582   2.339   6.150  0.9537 -1.6710  2.3780
  427GLU    H1254933   0.618   2.648   6.158 -1.3430 -0.0037  1.8859
  427GLU    H1354934   0.601   2.729   5.894 -0.4837 -0.3250 -1.5518
  427GLU    H1454935   0.336   2.769   5.916 -2.1147  2.8238  1.7944
  427GLU    H1554936   0.451   2.839   6.021 -1.7303  1.5207 -3.7629
  427GLU    H1654937   0.271   2.610   6.062  0.2692 -0.5074  1.7875
  428GLU     C154938   7.363   0.742   1.955  0.0938  0.7168  0.3496
  428GLU     C254939   7.321   0.717   2.097  0.6591 -0.7866 -0.2860
  428GLU     C354940   7.352   0.821   2.205 -0.0957  0.1604 -0.0542
  428GLU     O154941   7.405   0.930   2.147 -0.9753  0.4849  0.7040
  428GLU     C454942   7.369   0.980   2.018 -0.7024 -0.2433 -1.4630
  428GLU     C554943   7.485   1.060   1.966 -0.8193  0.9850 -0.4578
  428GLU     C654944   7.517   1.201   2.022  0.2512  0.1301  0.1055
  428GLU     C754945   7.655   1.264   1.962  0.1966  0.1661  0.0861
  428GLU     C854946   7.737   1.378   2.026 -0.3505  0.5657 -0.1337
  428GLU     O254947   0.107   1.388   1.969  0.9928 -0.7782 -0.2537
  428GLU     C954948   0.144   1.476   1.856  0.2539  0.3906  0.7746
  428GLU    C1054949   0.060   1.605   1.862  0.5120 -0.0678 -0.2400
  428GLU    C1154950   7.738   1.620   1.987  0.5481 -0.7063 -0.2949
  428GLU     O354951   7.665   1.497   1.995 -0.0065  0.0143 -0.0310
  428GLU     O454952   7.344   0.875   1.925  0.2516  0.3206  0.0060
  428GLU     H154953   7.472   0.733   1.955 -0.0376 -1.5600  1.3469
  428GLU     H254954   7.352   0.617   2.129 -2.6960 -2.5248 -1.9705
  428GLU     H354955   7.216   0.687   2.108  0.6352 -0.1199  1.7323
  428GLU     H454956   7.423   0.774   2.274 -0.9390  0.4691  1.0570
  428GLU     H554957   7.281   1.043   2.032  1.4885  2.5551  0.8728
  428GLU     H654958   7.483   1.046   1.857  4.8808 -1.2618 -0.6272
  428GLU     H754959   7.575   0.999   1.974  0.2466  1.7813 -4.1881
  428GLU     H854960   7.534   1.191   2.130 -0.7138 -2.1379  0.1014
  428GLU     H954961   7.443   1.281   2.014  0.5760  0.4334  0.0822
  428GLU    H1054962   7.636   1.288   1.857 -3.5776 -0.6238  0.4221
  428GLU    H1154963   7.733   1.189   1.950  1.7918  1.5846  1.0816
  428GLU    H1254964   7.744   1.354   2.133 -0.0598  5.1797  1.0774
  428GLU    H1354965   0.109   1.429   1.764 -3.4307 -0.8315  2.5839
  428GLU    H1454966   7.763   1.616   1.773  0.4365  2.5080  0.0712
  428GLU    H1554967   0.134   1.685   1.854  3.4645 -2.3498  1.9421
  428GLU    H1654968   7.670   1.702   1.960  3.7729  2.4392  0.4630
  429GLU     C154969   6.775   5.392   0.037  1.3041 -0.2272  0.8746
  429GLU     C254970   6.840   5.484   0.136  0.0055 -1.0167 -0.1263
  429GLU     C354971   6.969   5.418   0.189  0.3658  0.8626 -0.1864
  429GLU     O154972   6.924   5.308   0.270 -0.2023  0.5953  0.6345
  429GLU     C454973   6.854   5.212   0.184 -1.2845  0.0758  0.9839
  429GLU     C554974   6.785   5.092   0.267 -0.3836 -0.0034 -0.7544
  429GLU     C654975   6.888   5.026   0.370 -0.1699  0.5171 -0.7085
  429GLU     C754976   6.860   4.884   0.418 -0.7746 -0.1844  0.3678
  429GLU     C854977   6.900   4.840   0.565 -0.2104  0.2841 -0.0891
  429GLU     O254978   6.917   4.697   0.567 -0.0781 -0.0668 -0.5068
  429GLU     C954979   6.964   4.630   0.685 -0.6283 -0.5893 -0.8026
  429GLU    C1054980   7.043   4.733   0.765  0.5891  0.3368 -0.6786
  429GLU    C1154981   7.113   4.835   0.682  0.0792  0.0713  0.6244
  429GLU     O354982   7.019   4.908   0.597 -0.1637 -0.8144  0.2960
  429GLU     O454983   6.744   5.272   0.124  0.8126 -0.2489 -0.2703
  429GLU     H154984   6.825   5.367   8.039 -1.2407  1.8327 -1.1660
  429GLU     H254985   6.778   5.535   0.211 -2.6251  1.7204 -3.8411
  429GLU     H354986   6.871   5.568   0.073 -0.1708 -0.4017  0.5879
  429GLU     H454987   7.034   5.368   0.117  2.6936  0.7541  1.8823
  429GLU     H554988   6.921   5.163   0.112 -3.4290  1.9457 -2.5958
  429GLU     H654989   6.763   5.011   0.196 -3.0925  0.9410 -1.0764
  429GLU     H754990   6.692   5.105   0.322 -1.2894  1.0880 -2.4778
  429GLU     H854991   6.908   5.092   0.456  0.2719 -1.0350  0.4264
  429GLU     H954992   6.979   5.022   0.309 -0.8016 -1.1737 -1.5912
  429GLU    H1054993   6.890   4.801   0.354  1.4264  0.6843  0.2035
  429GLU    H1154994   6.750   4.876   0.416 -0.8777  0.7408  1.4198
  429GLU    H1254995   6.821   4.880   0.629 -0.2384  0.4589 -0.2289
  429GLU    H1354996   7.030   4.549   0.652  3.8687  1.8987  1.1446
  429GLU    H1454997   7.124   4.678   0.816 -0.5365 -2.7367 -1.9795
  429GLU    H1554998   6.982   4.791   0.836 -1.3372  0.1161 -2.0943
  429GLU    H1654999   7.185   4.780   0.620 -4.1703 -1.8335 -3.2364
  430GLU     C155000   1.773   3.890   2.243  0.0047 -1.8830 -0.3773
  430GLU     C255001   1.865   3.942   2.352  0.1501 -0.4472 -0.5440
  430GLU     C355002   1.976   3.849   2.410  0.4791 -0.1237 -0.2072
  430GLU     O155003   1.928   3.710   2.413 -0.0178  0.6708  0.6248
  430GLU     C455004   1.823   3.671   2.321 -0.0876  0.4267 -0.8913
  430GLU     C555005   1.764   3.541   2.388  0.4182 -0.5641  1.1422
  430GLU     C655006   1.632   3.502   2.316 -0.0557 -0.3369  0.8226
  430GLU     C755007   1.617   3.349   2.308  0.8870  0.2262  0.6514
  430GLU     C855008   1.490   3.285   2.240  0.4203 -0.2783  1.1565
  430GLU     O255009   1.474   3.345   2.109  0.5506  0.7733  0.5562
  430GLU     C955010   1.345   3.322   2.036 -1.2687 -0.9822  0.7950
  430GLU    C1055011   1.327   3.169   2.046 -0.3555  0.2449 -0.0398
  430GLU    C1155012   1.427   3.072   2.119  0.1748 -1.1751 -0.5905
  430GLU     O355013   1.515   3.147   2.208  0.3473  0.3947 -0.1056
  430GLU     O455014   1.720   3.764   2.299  0.4060 -0.7317 -1.4895
  430GLU     H155015   1.808   3.876   2.140  1.3459 -0.8007 -0.1105
  430GLU     H255016   1.796   3.958   2.435 -1.3184  3.2273 -2.2309
  430GLU     H355017   1.910   4.042   2.348 -1.6812  0.8820  4.4653
  430GLU     H455018   1.983   3.879   2.515 -2.3199 -3.3119  1.0520
  430GLU     H555019   1.880   3.655   2.229  2.9009 -1.7039  1.1369
  430GLU     H655020   1.746   3.565   2.493  0.5487 -2.8757  1.7413
  430GLU     H755021   1.843   3.466   2.381 -1.5675 -2.5843 -2.3672
  430GLU     H855022   1.624   3.552   2.219  1.1051 -1.1768  0.2886
  430GLU     H955023   1.540   3.546   2.358  0.3974 -0.0976  1.5946
  430GLU    H1055024   1.621   3.299   2.406  2.2791  1.6101  1.3340
  430GLU    H1155025   1.714   3.315   2.270  2.1424  1.5889  2.5063
  430GLU    H1255026   1.397   3.286   2.298  0.1497 -1.2358  0.7643
  430GLU    H1355027   1.364   3.360   1.935  1.8416  0.5945  1.8320
  430GLU    H1455028   1.279   3.134   1.954  2.5250 -2.6138 -0.6188
  430GLU    H1555029   1.243   3.154   2.116  1.0831  3.1462  2.5499
  430GLU    H1655030   1.366   3.015   2.189 -0.4077 -0.4814 -0.5258
  431GLU     C155031   2.738   6.244   3.356  0.5474  0.8726 -0.4806
  431GLU     C255032   2.672   6.316   3.472 -0.1343  0.6724 -0.6441
  431GLU     C355033   2.524   6.316   3.435 -0.6913 -0.1470 -0.1380
  431GLU     O155034   2.511   6.347   3.293  0.2348  0.2193 -0.2261
  431GLU     C455035   2.632   6.409   3.214  0.5149  0.1312 -0.5104
  431GLU     C555036   2.629   6.574   3.222 -0.7210  0.7639 -0.5276
  431GLU     C655037   2.682   6.673   3.104  0.9451 -0.5495  0.5741
  431GLU     C755038   2.707   6.828   3.149  0.6322  0.8839  0.8279
  431GLU     C855039   2.806   6.887   3.050  0.6568 -0.8881  0.5869
  431GLU     O255040   2.749   7.017   3.013  0.4339  1.0107  0.5045
  431GLU     C955041   2.839   7.102   2.931 -0.0583 -0.0493 -1.1547
  431GLU    C1055042   2.985   7.091   2.966  0.3232  0.2773 -0.4142
  431GLU    C1155043   2.990   7.037   3.117 -0.5426 -0.8015  0.0040
  431GLU     O355044   2.939   6.909   3.106  0.5040 -0.0540  0.7994
  431GLU     O455045   2.757   6.356   3.263 -0.5134  0.1628 -0.1326
  431GLU     H155046   2.679   6.172   3.297  3.4336  1.8823 -5.0689
  431GLU     H255047   2.696   6.423   3.469  0.4117  0.5725 -0.0376
  431GLU     H355048   2.695   6.279   3.573  0.2974  0.9851 -0.6247
  431GLU     H455049   2.484   6.393   3.502 -1.5802 -0.7511  0.0510
  431GLU     H555050   2.605   6.368   3.116 -2.1290 -1.8047  0.9072
  431GLU     H655051   2.662   6.593   3.325 -2.5271 -1.6018  0.5928
  431GLU     H755052   2.522   6.596   3.232 -0.8620  1.2258 -2.5866
  431GLU     H855053   2.621   6.657   3.015  1.5765 -2.4547  0.4373
  431GLU     H955054   2.782   6.639   3.074  0.1263 -1.5219 -1.1633
  431GLU    H1055055   2.758   6.809   3.244 -0.8484  2.3689  1.9864
  431GLU    H1155056   2.607   6.872   3.151  0.5389  1.2721 -3.5488
  431GLU    H1255057   2.805   6.832   2.955 -0.3642  1.0641 -0.6138
  431GLU    H1355058   2.831   7.059   2.831 -0.2504 -0.0217 -1.1528
  431GLU    H1455059   3.029   7.190   2.948  2.2858 -0.7964 -1.8285
  431GLU    H1555060   3.028   7.029   2.886 -0.1687 -1.0350  0.3036
  431GLU    H1655061   2.945   7.108   3.187 -2.8189  4.6872 -6.0274
  432GLU     C155062   0.559   5.483   1.866 -0.6009 -0.0265  0.1727
  432GLU     C255063   0.543   5.335   1.825  0.7477  0.7741  1.1010
  432GLU     C355064   0.623   5.304   1.697  0.8193 -0.4737  0.0721
  432GLU     O155065   0.571   5.393   1.597  0.1969 -0.1739  0.4335
  432GLU     C455066   0.579   5.533   1.625 -0.5041 -0.3002  0.4705
  432GLU     C555067   0.498   5.617   1.516 -0.0268  1.1254 -0.4554
  432GLU     C655068   0.510   5.597   1.369 -0.4356  0.0675  0.3376
  432GLU     C755069   0.493   5.729   1.282  0.2335  0.7706 -0.0717
  432GLU     C855070   0.441   5.732   1.133 -0.3326  0.0054 -0.4447
  432GLU     O255071   0.304   5.779   1.127 -0.1858 -0.1553 -0.3591
  432GLU     C955072   0.233   5.805   1.011 -0.4734 -1.0465  1.2765
  432GLU    C1055073   0.320   5.786   0.880 -0.2902  0.0490 -0.1722
  432GLU    C1155074   0.466   5.827   0.895 -0.6608 -0.1530  0.7667
  432GLU     O355075   0.494   5.832   1.039 -0.9399 -0.0516 -0.4509
  432GLU     O455076   0.527   5.566   1.761  0.4632  0.0581  0.2450
  432GLU     H155077   0.666   5.497   1.884 -0.5446  1.3362 -0.9833
  432GLU     H255078   0.442   5.304   1.794  0.8861  0.3525  1.0721
  432GLU     H355079   0.574   5.277   1.913 -3.8834 -3.2602  0.4913
  432GLU     H455080   0.720   5.324   1.743  0.2199 -2.1957  2.2115
  432GLU     H555081   0.686   5.557   1.626 -0.8655  1.8847 -1.7209
  432GLU     H655082   0.521   5.720   1.547  2.4854  0.5529 -0.1885
  432GLU     H755083   0.393   5.604   1.544  0.3026  0.5220  0.5589
  432GLU     H855084   0.423   5.532   1.350 -0.7122 -0.4279  2.8817
  432GLU     H955085   0.600   5.539   1.345  1.8369  2.4685  2.4246
  432GLU    H1055086   0.582   5.784   1.315 -1.0250 -0.5564  7.0133
  432GLU    H1155087   0.404   5.773   1.330 -1.6914 -0.9403 -1.8435
  432GLU    H1255088   0.438   5.641   1.071  1.4372  1.2297 -2.4997
  432GLU    H1355089   0.209   5.910   1.031  0.2506 -1.1257  2.7115
  432GLU    H1455090   0.270   5.818   0.788  1.5008  0.1657 -1.1511
  432GLU    H1555091   0.322   5.677   0.862 -1.2134  0.0608 -0.3970
  432GLU    H1655092   0.537   5.758   0.848 -0.6112  1.6963 -2.1279
  433GLU     C155093   6.154   4.907   4.759  0.1071  0.5204 -0.1717
  433GLU     C255094   6.247   5.018   4.764 -0.1062  0.2242  0.4317
  433GLU     C355095   6.376   4.954   4.709 -1.0812 -1.1262 -0.5882
  433GLU     O155096   6.344   4.899   4.579 -1.8632  0.4217 -0.7768
  433GLU     C455097   6.211   4.920   4.521 -0.3480 -0.1166  1.0918
  433GLU     C555098   6.202   4.842   4.389 -0.7362  0.0999  0.2659
  433GLU     C655099   6.284   4.900   4.264 -0.4185 -0.0891 -1.1137
  433GLU     C755100   6.209   5.016   4.181 -0.1088  0.9511  0.1706
  433GLU     C855101   6.174   4.979   4.039 -0.5638  0.3425  1.1268
  433GLU     O255102   6.092   4.858   4.036  2.0242  0.2809  0.7153
  433GLU     C955103   6.021   4.812   3.910  0.8481  0.9312 -1.9623
  433GLU    C1055104   5.977   4.938   3.846  0.5239 -0.1681 -0.7194
  433GLU    C1155105   6.094   5.035   3.823  0.1986 -0.6020 -1.6248
  433GLU     O355106   6.125   5.092   3.961 -0.1239  0.2279  0.1877
  433GLU     O455107   6.113   4.887   4.618 -0.1204  0.0893 -0.0086
  433GLU     H155108   6.216   4.824   4.794 -1.0915 -1.6753 -2.8691
  433GLU     H255109   6.259   5.050   4.868 -0.9813  0.9608  0.3246
  433GLU     H355110   6.220   5.104   4.700 -0.0183  1.3178  1.8185
  433GLU     H455111   6.408   4.877   4.781 -0.8834 -2.1866 -1.7745
  433GLU     H555112   6.220   5.025   4.490  0.2943 -0.9900 -2.0863
  433GLU     H655113   6.095   4.837   4.367 -0.5491 -0.0773 -0.6549
  433GLU     H755114   6.243   4.741   4.403 -0.6341  0.1392  0.2468
  433GLU     H855115   6.297   4.819   4.192 -2.3447  0.6441 -2.3634
  433GLU     H955116   6.380   4.946   4.294 -0.8812  0.3798 -0.3171
  433GLU    H1055117   6.263   5.108   4.160 -0.1756  1.2056  1.0761
  433GLU    H1155118   6.114   5.018   4.236 -0.8663  2.5001 -1.1287
  433GLU    H1255119   6.271   4.950   3.996 -0.6059 -0.0471  1.2912
  433GLU    H1355120   6.094   4.759   3.848  2.3287 -1.3039  1.3679
  433GLU    H1455121   5.897   4.990   3.900  2.1621 -0.2065  1.8910
  433GLU    H1555122   5.928   4.914   3.751  1.3106  1.9330 -1.7308
  433GLU    H1655123   6.161   4.969   3.766 -1.9628 -0.4214 -4.6512
  434GLU     C155124   6.533   7.053   7.296 -1.1503  0.0611 -0.2624
  434GLU     C255125   6.493   7.203   7.319  0.2392 -0.2764  0.1296
  434GLU     C355126   6.342   7.257   7.296  0.9409  1.2253 -0.7919
  434GLU     O155127   6.289   7.150   7.220  0.1726  0.9614  1.4704
  434GLU     C455128   6.279   7.013   7.281  0.4312  0.0286  0.0840
  434GLU     C555129   6.221   6.917   7.172  0.3929 -0.5970  0.5248
  434GLU     C655130   6.093   6.964   7.104  0.0189  0.2551  0.4520
  434GLU     C755131   5.963   6.976   7.180 -0.0405  0.0287  0.6256
  434GLU     C855132   5.917   6.846   7.247 -0.5123  0.2663  1.4848
  434GLU     O255133   6.012   6.822   7.352  0.2946  0.0574  0.4350
  434GLU     C955134   5.979   6.790   7.492  0.3753  0.1001  1.3077
  434GLU    C1055135   5.826   6.804   7.523 -0.1656 -1.1506 -0.0906
  434GLU    C1155136   5.739   6.782   7.394  0.4818 -0.4023 -0.0875
  434GLU     O355137   5.786   6.872   7.295 -0.4111  1.0104  0.0951
  434GLU     O455138   6.408   6.972   7.333 -1.2560 -0.4219 -0.2257
  434GLU     H155139   6.549   7.034   7.189  3.1541  0.6670  0.0634
  434GLU     H255140   6.550   7.259   7.243  2.5556  0.6143  2.3907
  434GLU     H355141   6.509   7.253   7.415  0.4099 -2.7819  1.4977
  434GLU     H455142   6.297   7.252   7.396  2.9493 -0.5084  0.0848
  434GLU     H555143   6.218   7.026   7.371  2.2883 -0.9097  1.5442
  434GLU     H655144   6.209   6.822   7.225  2.3038 -3.6303 -3.9154
  434GLU     H755145   6.286   6.910   7.084 -2.3983  0.8306 -1.8428
  434GLU     H855146   6.082   6.893   7.022 -0.5210  2.8071 -1.8301
  434GLU     H955147   6.110   7.065   7.064 -0.5281  3.1075  6.2961
  434GLU    H1055148   5.895   7.030   7.113  0.7167 -1.5954 -1.5676
  434GLU    H1155149   5.992   7.053   7.253 -0.3210  0.0291  0.7361
  434GLU    H1255150   5.920   6.759   7.181  1.4475  1.3404  0.0462
  434GLU    H1355151   6.001   6.682   7.490  2.3417  0.4603 -0.2275
  434GLU    H1455152   5.815   6.912   7.543 -1.0490 -0.9981 -1.2533
  434GLU    H1555153   5.801   6.750   7.614  3.3616  1.2584  2.5491
  434GLU    H1655154   5.758   6.679   7.360 -1.8162 -1.1111  0.5326
  435GLU     C155155   0.187   7.568   7.557 -0.7368  0.0876  0.6571
  435GLU     C255156   0.168   7.589   7.403 -1.1957 -0.8349  0.7491
  435GLU     C355157   0.270   7.682   7.325  0.2618 -0.5881  0.0246
  435GLU     O155158   0.376   0.041   7.397  0.4721  0.1197  0.2429
  435GLU     C455159   0.373   0.035   7.540  0.0182 -0.3883  0.7181
  435GLU     C555160   0.437   0.170   7.576  0.5361 -0.4530  0.1921
  435GLU     C655161   0.593   0.154   7.585  0.2226  0.2710  0.1369
  435GLU     C755162   0.675   0.265   7.534  0.0521 -0.3785  0.2685
  435GLU     C855163   0.804   0.240   7.469  0.6449 -0.2778  0.0533
  435GLU     O255164   0.802   0.126   7.379 -0.3139  0.6702  0.1304
  435GLU     C955165   0.776   0.159   7.239  0.3845  1.0270  0.4492
  435GLU    C1055166   0.880   0.261   7.186  0.1629 -0.0135 -0.0756
  435GLU    C1155167   0.946   0.338   7.306 -0.4873 -0.4803 -0.3696
  435GLU     O355168   0.837   0.359   7.403 -0.7216 -0.6649  0.6731
  435GLU     O455169   0.243   0.006   7.599  0.2169  0.1315  0.0198
  435GLU     H155170   0.242   7.477   7.584 -2.0502 -1.2872 -1.1087
  435GLU     H255171   0.077   7.646   7.384  1.6092  4.6452  1.7746
  435GLU     H355172   0.177   7.498   7.342 -0.9422 -0.1102 -0.3039
  435GLU     H455173   0.312   7.620   7.245 -0.5201  3.4495 -3.9142
  435GLU     H555174   0.435   7.636   7.574 -1.0590 -0.3420  3.0079
  435GLU     H655175   0.411   0.210   7.675 -0.0343 -0.0654 -0.1093
  435GLU     H755176   0.415   0.251   7.506  3.3731 -1.4234 -2.0212
  435GLU     H855177   0.615   0.070   7.519  0.1139 -1.7833  2.5776
  435GLU     H955178   0.638   0.102   7.670  0.7791  0.2471 -0.1688
  435GLU    H1055179   0.686   0.356   7.594 -3.5212  2.7420 -3.2187
  435GLU    H1155180   0.616   0.307   7.452  2.3874  1.3193 -0.6739
  435GLU    H1255181   0.885   0.225   7.541  0.6029  1.2086  0.4419
  435GLU    H1355182   0.675   0.199   7.221 -0.6082 -1.0812  0.9828
  435GLU    H1455183   0.838   0.342   7.126 -0.0918 -0.2687 -0.2507
  435GLU    H1555184   0.969   0.232   7.129 -0.5239 -0.4149 -0.9826
  435GLU    H1655185   1.027   0.281   7.353  0.4194  0.4991 -0.7110
  436GLU     C155186   7.303   4.725   0.338 -0.2202 -0.0237 -0.0514
  436GLU     C255187   7.161   4.773   0.280 -0.8029  1.1761  0.3014
  436GLU     C355188   7.174   4.803   0.117  1.1675 -0.5011 -0.6532
  436GLU     O155189   7.220   4.689   0.044  0.1250 -1.7330  1.0215
  436GLU     C455190   7.316   4.618   0.106  1.5233 -1.1128  0.2390
  436GLU     C555191   7.431   4.601   0.001  0.0145 -0.5765 -1.2571
  436GLU     C655192   7.401   4.567   7.946 -0.5604 -0.5172  0.0760
  436GLU     C755193   7.382   4.672   7.838  0.4644  0.1468  0.5692
  436GLU     C855194   7.500   4.767   7.804 -0.0823  0.2093 -0.2257
  436GLU     O255195   7.530   4.859   7.910 -0.0698  0.9444 -0.6876
  436GLU     C955196   7.652   4.910   7.958  1.0931  0.6771  1.0209
  436GLU    C1055197   0.004   4.816   7.898  0.3476 -0.6772 -0.8823
  436GLU    C1155198   7.743   4.729   7.773 -0.4567 -1.4202 -0.1797
  436GLU     O355199   7.613   4.679   7.776  0.4639 -0.2860 -0.0123
  436GLU     O455200   7.377   4.684   0.214 -0.7970  0.1457 -0.3811
  436GLU     H155201   7.357   4.802   0.395  1.5061 -0.3953 -1.1210
  436GLU     H255202   7.131   4.862   0.337 -1.1060 -0.0138  2.0775
  436GLU     H355203   7.085   4.695   0.291  1.8194 -1.7060 -0.7927
  436GLU     H455204   7.256   4.873   0.097  2.7784 -1.5745  1.6919
  436GLU     H555205   7.287   4.516   0.134  0.7395 -0.9707 -0.0469
  436GLU     H655206   7.489   4.526   0.055  0.8318 -0.2819 -1.7119
  436GLU     H755207   7.499   4.686   0.014 -4.0465  2.5478  3.2713
  436GLU     H855208   7.312   4.503   7.954  2.5366 -5.1695  0.6954
  436GLU     H955209   7.468   4.482   7.930  2.8132  1.6308  1.6051
  436GLU    H1055210   7.297   4.740   7.853  1.5683  2.1522 -1.6034
  436GLU    H1155211   7.354   4.625   7.743  0.9959 -1.8673  1.3371
  436GLU    H1255212   7.478   4.838   7.723  0.1949  1.8419  1.0869
  436GLU    H1355213   7.648   5.007   7.908 -3.7914  1.3754  2.2855
  436GLU    H1455214   0.033   4.756   7.985 -0.8845  0.5993  0.4700
  436GLU    H1555215   0.088   4.877   7.865 -0.3094 -1.0732 -3.6275
  436GLU    H1655216   7.761   4.803   7.694  2.8757  0.7578  2.3326
  437GLU     C155217   3.848   3.377   7.524  0.4869  0.3162  0.5571
  437GLU     C255218   3.995   3.326   7.498  0.7518  0.8510  0.3815
  437GLU     C355219   4.007   3.222   7.390 -0.4572  1.2551 -0.0899
  437GLU     O155220   3.902   3.118   7.415  0.3759  0.3205  0.3281
  437GLU     C455221   3.770   3.137   7.487  0.1974  0.6272 -0.4651
  437GLU     C555222   3.693   2.999   7.520  0.6280  0.4277 -0.7129
  437GLU     C655223   3.736   2.867   7.593 -0.1412  0.5406  0.1866
  437GLU     C755224   3.662   2.730   7.551 -1.1241 -0.3632 -0.0536
  437GLU     C855225   3.677   2.602   7.636 -0.1579 -0.2151 -1.2362
  437GLU     O255226   3.585   2.587   7.750 -0.8332 -0.0167  1.1606
  437GLU     C955227   3.586   2.462   7.821  0.1655 -0.1799 -0.0402
  437GLU    C1055228   3.549   2.362   7.705  0.2325 -0.2681 -0.3712
  437GLU    C1155229   3.660   2.357   7.602 -1.5394  0.2990 -0.3380
  437GLU     O355230   3.672   2.489   7.542  0.2304 -1.1066  0.0535
  437GLU     O455231   3.778   3.255   7.581  0.1376 -0.2301 -0.0431
  437GLU     H155232   3.809   3.409   7.427 -1.9034  0.6370  1.5744
  437GLU     H255233   4.048   3.280   7.582 -2.9759 -5.0682  0.0922
  437GLU     H355234   4.043   3.420   7.468  0.4873  0.6921 -0.5845
  437GLU     H455235   4.098   3.164   7.408 -2.8682 -2.5383  1.1204
  437GLU     H555236   3.712   3.192   7.411 -1.9755  2.9132  2.5820
  437GLU     H655237   3.672   2.960   7.419  0.7912 -3.0196  0.4519
  437GLU     H755238   3.594   3.022   7.560 -0.2477 -4.7335  0.8395
  437GLU     H855239   3.719   2.887   7.699 -1.8099  0.4230 -0.0385
  437GLU     H955240   3.842   2.850   7.569  0.8894  5.6326 -0.0269
  437GLU    H1055241   3.721   2.712   7.460  3.1334  0.3284  2.3008
  437GLU    H1155242   3.555   2.741   7.531 -2.2050 -2.1091  3.7804
  437GLU    H1255243   3.777   2.612   7.681 -0.2069  3.5883 -1.5894
  437GLU    H1355244   3.684   2.434   7.861 -1.5868 -2.6566  3.0186
  437GLU    H1455245   3.462   2.406   7.655  1.3135  1.8288 -0.5275
  437GLU    H1555246   3.515   2.273   7.759  0.5957 -0.2653 -0.1297
  437GLU    H1655247   3.754   2.326   7.651 -2.3350  0.2618  1.2333
  438GLU     C155248   0.563   1.674   0.575 -0.7884 -1.0421  0.6773
  438GLU     C255249   0.692   1.752   0.649  0.4141  1.2358  0.6895
  438GLU     C355250   0.642   1.859   0.749  0.9654  0.3583  1.1410
  438GLU     O155251   0.505   1.813   0.793  0.4632  0.5504 -0.1422
  438GLU     C455252   0.409   1.803   0.688 -0.0323 -1.3735 -0.4113
  438GLU     C555253   0.362   1.948   0.669 -0.3063  0.3269  0.3066
  438GLU     C655254   0.298   2.001   0.801  0.8301  0.6826  0.7465
  438GLU     C755255   0.246   2.146   0.830 -0.3249 -0.0431 -0.7124
  438GLU     C855256   0.191   2.220   0.713 -1.1022 -0.1110 -0.2683
  438GLU     O255257   0.307   2.281   0.656 -0.9821 -0.3029  0.0836
  438GLU     C955258   0.280   2.372   0.535  0.5858  0.9447 -0.4532
  438GLU    C1055259   0.213   2.289   0.429 -0.1110 -0.5855  1.3656
  438GLU    C1155260   0.083   2.226   0.490 -0.9559  0.1326  1.6209
  438GLU     O355261   0.123   2.158   0.605 -0.1755  0.2712 -0.2921
  438GLU     O455262   0.463   1.775   0.560  0.3743  0.4315 -0.2343
  438GLU     H155263   0.520   1.600   0.644 -6.1475 -0.6281 -1.6849
  438GLU     H255264   0.740   1.804   0.566 -0.8186 -0.8606 -1.4920
  438GLU     H355265   0.761   1.686   0.704  0.8464 -1.9389 -3.1474
  438GLU     H455266   0.634   1.951   0.690  0.9655  0.1570  0.8265
  438GLU     H555267   0.336   1.727   0.716  2.4637 -2.4381  4.1678
  438GLU     H655268   0.286   1.944   0.590  2.3808 -1.4183 -2.4488
  438GLU     H755269   0.439   2.020   0.638 -1.1766  2.2918  2.4391
  438GLU     H855270   0.371   1.984   0.881  0.2145  1.3208  1.4624
  438GLU     H955271   0.216   1.928   0.810  1.9684 -0.5063  1.8264
  438GLU    H1055272   0.335   2.205   0.857 -2.7793  3.2777  0.9285
  438GLU    H1155273   0.173   2.160   0.911 -0.4115  0.8664 -0.9277
  438GLU    H1255274   0.145   2.310   0.754  1.0331  1.3809 -0.9705
  438GLU    H1355275   0.222   2.462   0.559 -0.7733  0.3674 -1.4259
  438GLU    H1455276   0.288   2.218   0.393  0.3622  1.1735 -1.4023
  438GLU    H1555277   0.182   2.349   0.342 -2.2402 -0.2639  2.2771
  438GLU    H1655278   0.021   2.313   0.515  0.0214  1.3993 -0.1225
  439GLU     C155279   6.515   5.985   5.691 -0.9943 -0.0996  0.0349
  439GLU     C255280   6.597   5.959   5.813 -1.3683 -0.0425 -0.8151
  439GLU     C355281   6.652   5.812   5.788  0.2975 -1.2061 -0.7492
  439GLU     O155282   6.698   5.792   5.655 -0.6488  0.2882  0.2266
  439GLU     C455283   6.721   5.909   5.578  1.2991  0.0348  0.4605
  439GLU     C555284   6.766   5.869   5.429  0.9319  0.2206 -0.0869
  439GLU     C655285   6.860   5.742   5.413  0.7971  0.6222  0.6680
  439GLU     C755286   6.956   5.725   5.289  0.4450  0.7914 -0.1718
  439GLU     C855287   7.091   5.787   5.283 -0.4536 -0.0320  0.5435
  439GLU     O255288   7.164   5.791   5.401  0.3691 -0.3007 -0.3027
  439GLU     C955289   7.268   5.890   5.407 -0.4580  0.3635  0.9106
  439GLU    C1055290   7.343   5.886   5.278  0.0471  0.1524  1.0691
  439GLU    C1155291   7.323   5.740   5.201  0.0782  0.0297  0.1365
  439GLU     O355292   7.179   5.743   5.174 -0.0413 -0.1391  0.3602
  439GLU     O455293   6.605   5.990   5.573  0.2881  1.0838  0.5408
  439GLU     H155294   6.439   5.906   5.688  0.2196 -1.3401  1.0523
  439GLU     H255295   6.542   5.961   5.908  1.9901 -2.0241  1.3539
  439GLU     H355296   6.680   6.029   5.823 -1.7166  0.5252 -1.7556
  439GLU     H455297   6.569   5.747   5.818  0.8399 -2.4417 -1.8271
  439GLU     H555298   6.803   5.974   5.609 -0.3985  2.4988  0.1146
  439GLU     H655299   6.829   5.951   5.392  1.6405 -1.2990 -2.4644
  439GLU     H755300   6.674   5.862   5.371  2.9306  3.2754 -4.1294
  439GLU     H855301   6.790   5.660   5.393 -0.6738  0.9547  3.8181
  439GLU     H955302   6.917   5.702   5.497  2.5010 -2.7869 -1.8587
  439GLU    H1055303   6.895   5.750   5.201 -0.0045 -2.1282 -0.7791
  439GLU    H1155304   6.985   5.621   5.274 -0.2465  0.6238 -0.4005
  439GLU    H1255305   7.070   5.893   5.262  0.4288  0.0874  0.1883
  439GLU    H1355306   7.338   5.849   5.481  0.1222  0.9023  0.6690
  439GLU    H1455307   7.447   5.916   5.300  0.8809  0.6045 -2.7932
  439GLU    H1555308   7.314   5.960   5.202  0.8097 -0.7220 -0.1022
  439GLU    H1655309   7.349   5.660   5.271  1.9540  2.5433  2.4994
  440GLU     C155310   6.199   3.513   2.501  0.0633  0.1857  0.6788
  440GLU     C255311   6.229   3.370   2.541 -0.4027  0.3093 -0.8629
  440GLU     C355312   6.101   3.289   2.576  0.3645  0.4880 -0.3265
  440GLU     O155313   5.984   3.330   2.505  0.0493 -0.2726 -0.4036
  440GLU     C455314   5.998   3.412   2.386  0.1190 -0.4443  0.0065
  440GLU     C555315   5.857   3.468   2.373 -0.4222  0.1914 -0.1002
  440GLU     C655316   5.795   3.457   2.232  0.7459 -0.1736 -0.3026
  440GLU     C755317   5.638   3.451   2.221 -0.9218  0.0657  0.3381
  440GLU     C855318   5.571   3.414   2.083 -0.0595 -0.1971 -1.0311
  440GLU     O255319   5.652   3.479   1.987  0.1597 -0.0334 -0.2443
  440GLU     C955320   5.716   3.368   1.910  0.1398  0.5052 -0.0651
  440GLU    C1055321   5.615   3.274   1.842  0.1615  0.9030 -1.1698
  440GLU    C1155322   5.487   3.242   1.933 -0.2658  0.7406  0.6143
  440GLU     O355323   5.539   3.271   2.076 -1.1750  0.0126 -0.0317
  440GLU     O455324   6.094   3.525   2.402 -0.1834  0.5733 -0.4926
  440GLU     H155325   6.158   3.551   2.595 -2.6498  1.1540 -0.8070
  440GLU     H255326   6.294   3.369   2.630 -4.9204 -1.6099  2.8791
  440GLU     H355327   6.260   3.323   2.447 -0.1657 -1.3014 -0.0190
  440GLU     H455328   6.074   3.295   2.683  1.9250 -0.8418  0.1733
  440GLU     H555329   6.028   3.342   2.308 -1.7611 -0.8688 -0.3735
  440GLU     H655330   5.856   3.575   2.399  2.5369 -0.7225  5.5804
  440GLU     H755331   5.796   3.421   2.451 -0.0886  0.2674  0.2126
  440GLU     H855332   5.855   3.394   2.166  2.8715  1.4098  0.0244
  440GLU     H955333   5.822   3.548   2.176  0.0383 -0.5826 -1.3502
  440GLU    H1055334   5.606   3.553   2.248 -1.6092 -0.4749  1.6444
  440GLU    H1155335   5.599   3.379   2.293  0.1179  1.0524  1.9547
  440GLU    H1255336   5.476   3.467   2.069 -0.1299  0.3424  1.1120
  440GLU    H1355337   5.783   3.317   1.980 -0.9557  2.4459  2.5292
  440GLU    H1455338   5.662   3.175   1.844 -0.7454  0.1788  4.9188
  440GLU    H1555339   5.592   3.320   1.746  3.8840  3.3517 -1.0762
  440GLU    H1655340   5.405   3.305   1.895  0.4268  0.5775 -1.2326
  441GLU     C155341   2.053   2.880   5.177  1.0115  0.4472 -0.1754
  441GLU     C255342   1.977   2.854   5.050 -0.2107 -0.1584  0.2894
  441GLU     C355343   1.826   2.817   5.075 -0.2608 -0.2285  1.1670
  441GLU     O155344   1.755   2.921   5.148  0.9018 -0.4813  0.0056
  441GLU     C455345   1.805   2.992   5.255 -0.6506 -0.4929  0.2678
  441GLU     C555346   1.699   2.992   5.377  0.7949 -0.3163 -0.6911
  441GLU     C655347   1.652   3.114   5.475 -0.0445  0.0504 -0.3786
  441GLU     C755348   1.502   3.104   5.542 -0.1829  0.7926 -0.1661
  441GLU     C855349   1.417   3.210   5.646 -0.6953 -0.2491  0.2241
  441GLU     O255350   1.448   3.349   5.633 -0.7367  0.3636  0.0785
  441GLU     C955351   1.371   3.445   5.713  0.3789  0.2312 -0.2477
  441GLU    C1055352   1.227   3.419   5.677  0.3299  0.6462  0.4532
  441GLU    C1155353   1.170   3.285   5.722 -0.0279 -1.3291  0.1971
  441GLU     O355354   1.281   3.186   5.703  0.0562 -0.1113  0.0899
  441GLU     O455355   1.957   2.958   5.265  0.9995 -0.3100 -0.0603
  441GLU     H155356   2.037   2.772   5.191 -3.6103  0.0487 -5.2834
  441GLU     H255357   2.033   2.779   4.992 -1.1882 -2.5908  2.3346
  441GLU     H355358   1.984   2.928   4.969  1.0191 -0.8660 -0.2827
  441GLU     H455359   1.824   2.739   5.153 -1.0852 -0.5559  0.8246
  441GLU     H555360   1.800   3.098   5.226 -3.9228  0.1566  2.7196
  441GLU     H655361   1.753   2.928   5.449 -0.4572 -1.5645 -0.8179
  441GLU     H755362   1.602   2.947   5.351  0.0300  0.6716  0.3462
  441GLU     H855363   1.658   3.209   5.421  4.7788  1.2725  1.7077
  441GLU     H955364   1.731   3.116   5.551 -3.8971 -3.6288  4.3416
  441GLU    H1055365   1.500   3.004   5.587 -0.6923 -0.7938 -3.4892
  441GLU    H1155366   1.438   3.089   5.455 -1.7108 -4.6932  1.4756
  441GLU    H1255367   1.470   3.197   5.741  2.4820  1.4186 -1.1534
  441GLU    H1355368   1.391   3.543   5.667 -3.9477  0.1699 -2.8220
  441GLU    H1455369   1.177   3.496   5.737 -0.1948 -1.6492  3.1630
  441GLU    H1555370   1.216   3.439   5.569 -1.3156 -0.3372  0.4099
  441GLU    H1655371   1.092   3.267   5.646 -1.8745 -0.3110  1.7648
  442GLU     C155372   1.342   3.573   0.134 -0.2211 -0.8021  1.2061
  442GLU     C255373   1.318   3.723   0.167 -0.0471  0.8317 -0.0309
  442GLU     C355374   1.426   3.807   0.099 -0.5875  0.1576  0.3073
  442GLU     O155375   1.541   3.767   0.181 -0.0593 -0.5350  0.2446
  442GLU     C455376   1.598   3.628   0.173 -0.8936  0.2403  0.2468
  442GLU     C555377   1.708   3.590   0.284  0.8495  0.7182  0.5124
  442GLU     C655378   1.871   3.627   0.261 -0.1494 -0.2627 -0.7669
  442GLU     C755379   1.982   3.559   0.363  1.2880  1.1912  0.4952
  442GLU     C855380   2.099   3.645   0.410 -0.2437  1.1672  0.1473
  442GLU     O255381   2.138   3.628   0.555  0.6638  0.4810 -0.4428
  442GLU     C955382   2.260   3.704   0.597 -0.3592 -0.6764  0.8219
  442GLU    C1055383   2.378   3.673   0.495 -0.4109 -0.1461  0.6642
  442GLU    C1155384   2.355   3.685   0.340  0.5154  0.0309 -0.6288
  442GLU     O355385   2.212   3.633   0.321 -1.0901 -0.8522  0.7486
  442GLU     O455386   1.482   3.531   0.174 -0.9813  0.8266 -1.0446
  442GLU     H155387   1.266   3.513   0.186  0.6682 -1.1176  2.1611
  442GLU     H255388   1.340   3.740   0.273  2.9575 -1.1003 -0.2074
  442GLU     H355389   1.218   3.766   0.154  1.0907  2.8289 -3.1776
  442GLU     H455390   1.446   3.766   8.096 -1.1186  0.8623 -0.0949
  442GLU     H555391   1.641   3.625   0.072 -1.3160  1.1347  0.0311
  442GLU     H655392   1.701   3.481   0.277 -2.0412  0.8968 -1.1434
  442GLU     H755393   1.677   3.629   0.382  1.3557  1.6487  0.3165
  442GLU     H855394   1.870   3.737   0.263 -2.6874 -0.2495 -0.1863
  442GLU     H955395   1.911   3.616   0.159  3.3832 -0.7786  0.5108
  442GLU    H1055396   2.007   3.470   0.305 -0.8613 -0.5532  2.0884
  442GLU    H1155397   1.936   3.532   0.459  3.5568  1.3566  1.7020
  442GLU    H1255398   2.085   3.753   0.398  1.7180  1.3650 -0.7833
  442GLU    H1355399   2.242   3.811   0.578  4.3528 -0.1116 -2.1724
  442GLU    H1455400   2.416   3.572   0.511  0.3580 -0.6247 -3.2434
  442GLU    H1555401   2.453   3.753   0.506  1.0727 -1.7193  2.6723
  442GLU    H1655402   2.341   3.792   0.320 -1.0903 -0.6345 -3.7185
  443GLU     C155403   4.933   4.469   2.757 -0.0759 -0.0964  0.2386
  443GLU     C255404   4.772   4.446   2.748 -1.4959 -0.0995  0.8661
  443GLU     C355405   4.688   4.485   2.877  0.0974 -0.0630 -0.6065
  443GLU     O155406   4.779   4.527   2.978  0.2816  0.3063 -0.0816
  443GLU     C455407   4.917   4.480   3.001 -0.3852 -0.8852  0.2299
  443GLU     C555408   4.914   4.398   3.136  0.5092  0.0977 -0.9663
  443GLU     C655409   5.002   4.472   3.241  0.0019 -0.4051  1.1115
  443GLU     C755410   5.005   4.423   3.397 -0.1736  1.4111 -0.1119
  443GLU     C855411   4.993   4.523   3.524  0.4578 -0.4824 -0.1624
  443GLU     O255412   5.055   4.644   3.478  0.0746  0.5530 -1.0760
  443GLU     C955413   5.065   4.762   3.563  0.3348 -0.6338  0.5924
  443GLU    C1055414   4.937   4.769   3.649  0.6684  0.4704  0.0986
  443GLU    C1155415   4.875   4.634   3.701 -0.4804  0.1565  0.0697
  443GLU     O355416   4.866   4.548   3.580  0.4048 -0.0931  0.5692
  443GLU     O455417   4.976   4.408   2.883  0.3706  0.4144 -0.1780
  443GLU     H155418   4.948   4.577   2.760  2.3363 -0.3945  2.3172
  443GLU     H255419   4.741   4.358   2.692 -0.5478 -0.6824  1.2261
  443GLU     H355420   4.756   4.525   2.674  0.9599 -1.4345 -1.2730
  443GLU     H455421   4.629   4.397   2.904 -0.3923 -0.9380 -4.0605
  443GLU     H555422   4.989   4.562   2.997 -0.8082 -0.5436 -3.1868
  443GLU     H655423   4.941   4.292   3.134  1.6782  0.2193  2.0761
  443GLU     H755424   4.805   4.400   3.150  0.1242  1.2366 -3.5314
  443GLU     H855425   4.986   4.578   3.217 -1.5790 -1.2832 -2.2052
  443GLU     H955426   5.106   4.475   3.208  0.1445 -1.2207  1.4572
  443GLU    H1055427   5.098   4.366   3.409 -0.2851  1.3285  0.3717
  443GLU    H1155428   4.948   4.330   3.407  0.2166  0.9204 -2.1477
  443GLU    H1255429   5.056   4.478   3.602  0.2139 -2.8724 -1.2612
  443GLU    H1355430   5.071   4.853   3.502 -3.9884 -1.4405 -1.3452
  443GLU    H1455431   4.859   4.820   3.591 -0.2838  4.1759  4.1345
  443GLU    H1555432   4.942   4.839   3.733 -0.8590 -0.6194  1.1621
  443GLU    H1655433   4.944   4.578   3.765 -1.3654 -3.1186 -1.6271
  444GLU     C155434   2.066   1.957   4.633  0.2495 -0.3553 -0.4948
  444GLU     C255435   1.995   1.846   4.546  0.1338 -0.1324 -0.7287
  444GLU     C355436   2.012   1.847   4.394 -0.8253  0.3296 -0.6989
  444GLU     O155437   2.159   1.866   4.373  0.0403  0.5260 -0.6221
  444GLU     C455438   2.250   1.949   4.459 -1.0719 -0.0397 -0.6005
  444GLU     C555439   2.364   2.044   4.382 -0.4781  1.0175  1.3580
  444GLU     C655440   2.474   2.027   4.261  0.3758 -0.2037  0.5775
  444GLU     C755441   2.544   2.172   4.200 -0.0479 -0.7947 -0.9207
  444GLU     C855442   2.663   2.187   4.088 -1.5552  0.1070  0.1556
  444GLU     O255443   2.670   2.068   3.983 -0.9049  0.6344 -0.4990
  444GLU     C955444   2.782   2.079   3.890 -0.3352 -0.4665  0.1209
  444GLU    C1055445   2.764   2.225   3.820 -0.5492  1.1567 -0.1385
  444GLU    C1155446   2.798   2.342   3.924  0.4723  0.9463  0.4660
  444GLU     O355447   2.665   2.300   3.998 -0.0788 -0.5590  0.9247
  444GLU     O455448   2.168   2.020   4.552  0.1745  0.6929 -0.1104
  444GLU     H155449   2.106   1.921   4.729 -1.2449 -0.1113  0.2559
  444GLU     H255450   1.886   1.837   4.556 -0.1748  0.9207 -2.6726
  444GLU     H355451   2.033   1.749   4.582  3.2988  1.2760  0.0146
  444GLU     H455452   1.958   1.942   4.386 -1.3962  0.0273 -0.4495
  444GLU     H555453   2.296   1.883   4.534 -1.2653  1.0187  0.4866
  444GLU     H655454   2.424   2.083   4.465  4.5494 -3.5755  0.4215
  444GLU     H755455   2.301   2.124   4.341  0.7292  1.7406  0.8424
  444GLU     H855456   2.444   1.964   4.176  3.1670 -1.4458  0.3971
  444GLU     H955457   2.566   1.982   4.301  1.0203  1.5579  1.1454
  444GLU    H1055458   2.567   2.233   4.288  1.8973 -2.3417 -0.2663
  444GLU    H1155459   2.460   2.233   4.164 -0.1486 -1.5306 -1.9805
  444GLU    H1255460   2.761   2.186   4.137 -0.1948 -1.3942 -2.4088
  444GLU    H1355461   2.879   2.076   3.941  0.4494 -0.1655 -1.2893
  444GLU    H1455462   2.655   2.219   3.804 -0.6455 -1.5122  0.8598
  444GLU    H1555463   2.819   2.223   3.725 -1.5911  1.0802 -0.7551
  444GLU    H1655464   2.856   2.274   3.987  2.1077 -0.0395 -1.9541
  445GLU     C155465   7.383   0.564   3.922  0.2015  0.4452  0.7995
  445GLU     C255466   7.260   0.552   3.838 -1.0110 -0.0473  0.4353
  445GLU     C355467   7.265   0.672   3.750 -0.6187 -1.1084  0.5526
  445GLU     O155468   7.259   0.794   3.828 -0.3204  0.2515  0.1614
  445GLU     C455469   7.368   0.808   3.911 -0.0894 -0.0743  0.2380
  445GLU     C555470   7.373   0.949   3.994 -0.2604 -0.5748  0.1642
  445GLU     C655471   7.400   1.095   3.920  0.1853  0.0874  0.3691
  445GLU     C755472   7.519   1.195   3.951 -0.5938 -0.8440  0.5967
  445GLU     C855473   7.631   1.259   3.852 -0.6409 -1.1313 -0.3514
  445GLU     O255474   7.730   1.179   3.782  0.1301  0.5121 -0.5695
  445GLU     C955475   0.021   1.223   3.647  0.3022 -0.3725  0.2508
  445GLU    C1055476   0.053   1.378   3.655  0.3928 -0.6014 -0.4717
  445GLU    C1155477   7.691   1.460   3.721  0.2267 -0.8331  1.2983
  445GLU     O355478   7.584   1.372   3.768 -1.0223  0.3167 -0.0073
  445GLU     O455479   7.370   0.687   3.991 -0.1400  0.3408  0.4048
  445GLU     H155480   7.383   0.492   4.004  0.9685  3.9888  4.1950
  445GLU     H255481   7.165   0.565   3.893 -3.1872 -0.7876 -2.8720
  445GLU     H355482   7.264   0.456   3.786 -0.9855  0.3545 -0.3116
  445GLU     H455483   7.353   0.664   3.685 -0.1597 -0.2012  1.0287
  445GLU     H555484   7.446   0.797   3.835 -0.0441 -6.5640  0.6458
  445GLU     H655485   7.427   0.953   4.090 -0.7199  2.8062  0.4341
  445GLU     H755486   7.277   0.954   4.046 -0.8674  0.2529 -0.9910
  445GLU     H855487   7.306   1.150   3.933 -0.6911  0.0862 -4.2450
  445GLU     H955488   7.385   1.074   3.813 -5.1127  0.7084  0.7199
  445GLU    H1055489   7.565   1.158   4.044 -1.3107 -2.3418  0.3816
  445GLU    H1155490   7.477   1.287   3.994  0.3178  1.0357 -2.2182
  445GLU    H1255491   7.681   1.327   3.923 -2.0487  0.8363 -1.1597
  445GLU    H1355492   7.717   1.217   3.563  0.1078 -2.4139  0.4884
  445GLU    H1455493   0.064   1.421   3.555 -4.1169  0.0103 -0.8974
  445GLU    H1555494   0.143   1.387   3.716  0.8057 -4.2612 -0.3311
  445GLU    H1655495   7.724   1.511   3.813  0.1294  0.9119  0.4010
  446GLU     C155496   0.643   3.005   3.936  0.2171  0.9215  0.2534
  446GLU     C255497   0.501   2.939   3.892  0.0195 -1.3199  1.3858
  446GLU     C355498   0.381   2.998   3.965 -0.2271 -0.0919 -0.5756
  446GLU     O155499   0.440   3.067   4.080  0.3737  0.3547 -0.6747
  446GLU     C455500   0.523   3.185   4.064 -1.0195  0.7282 -0.3283
  446GLU     C555501   0.600   3.235   4.190 -1.3618  0.5227  0.1120
  446GLU     C655502   0.669   3.365   4.148 -0.4761 -0.6481  1.4091
  446GLU     C755503   0.791   3.421   4.230  0.2364  0.1929 -0.2195
  446GLU     C855504   0.758   3.497   4.361  1.2954 -0.6396  0.0904
  446GLU     O255505   0.868   3.555   4.443 -0.1080  0.6094  0.2989
  446GLU     C955506   0.901   3.700   4.440 -0.0166  1.4540  0.3157
  446GLU    C1055507   0.762   3.784   4.441  0.2850  0.9439 -0.4912
  446GLU    C1155508   0.638   3.685   4.432 -0.1883  0.0068 -0.4109
  446GLU     O355509   0.676   3.607   4.313 -0.1907  0.3156 -0.3470
  446GLU     O455510   0.612   3.147   3.962 -0.3573 -0.0627 -0.2247
  446GLU     H155511   0.684   2.963   4.029  0.9664  1.7619  0.3128
  446GLU     H255512   0.505   2.833   3.920 -1.1071 -2.5623 -2.5616
  446GLU     H355513   0.481   2.950   3.785  2.9254  0.3536  0.8924
  446GLU     H455514   0.318   3.060   3.900 -0.4779  0.9934  0.6659
  446GLU     H555515   0.457   3.256   4.012  1.6316  3.6870  0.1050
  446GLU     H655516   0.673   3.156   4.214  2.9373  4.5684  1.9630
  446GLU     H755517   0.531   3.246   4.275  0.4442 -0.7471  1.8524
  446GLU     H855518   0.595   3.441   4.121  1.9550  1.1279 -0.8763
  446GLU     H955519   0.719   3.355   4.050  1.1259 -0.2740  2.1539
  446GLU    H1055520   0.842   3.485   4.156 -2.6240 -2.6219 -5.1518
  446GLU    H1155521   0.866   3.343   4.251  1.9428  1.0710 -2.5362
  446GLU    H1255522   0.699   3.429   4.422 -0.9587 -1.3896 -2.6985
  446GLU    H1355523   0.959   3.729   4.351 -1.8097  1.7426 -0.8190
  446GLU    H1455524   0.752   3.855   4.357 -1.1518  4.1637  2.1685
  446GLU    H1555525   0.745   3.843   4.532  1.9334  1.3602 -0.4241
  446GLU    H1655526   0.634   3.610   4.512 -4.6368  1.0666  0.6352
  447GLU     C155527   7.454   5.450   8.026 -0.7957  0.4696  0.8296
  447GLU     C255528   7.446   5.344   7.908 -0.6702 -0.6660 -0.6357
  447GLU     C355529   7.399   5.431   7.781 -0.4406  0.6268 -0.1821
  447GLU     O155530   7.252   5.476   7.815 -0.2204  0.8622 -0.0283
  447GLU     C455531   7.238   5.550   7.936  0.4991 -0.3101  0.1976
  447GLU     C555532   7.080   5.579   7.985 -0.2568  0.1117 -0.1083
  447GLU     C655533   6.960   5.652   7.908  0.8497 -1.1283 -0.2004
  447GLU     C755534   6.889   5.782   7.974  0.1448  1.3581 -0.4551
  447GLU     C855535   6.757   5.852   7.915 -0.3023  0.4437  0.0625
  447GLU     O255536   6.634   5.772   7.923  0.3979  0.3216  0.0674
  447GLU     C955537   6.501   5.839   7.901 -0.3544 -0.0532  2.0604
  447GLU    C1055538   6.492   5.996   7.939 -0.6958 -0.8966  0.0343
  447GLU    C1155539   6.626   6.085   7.945  0.2485  0.1222  0.8958
  447GLU     O355540   6.728   5.986   7.975 -0.4046  0.2780 -0.5996
  447GLU     O455541   7.319   5.498   8.047  0.4112  0.9075  0.1242
  447GLU     H155542   7.522   5.524   7.982 -1.0192  0.2743  0.1462
  447GLU     H255543   7.377   5.273   7.955  0.2623 -0.0101  1.9140
  447GLU     H355544   7.543   5.293   7.905 -1.0170 -1.4909  0.8758
  447GLU     H455545   7.462   5.520   7.766 -2.1391  2.1568  1.3689
  447GLU     H555546   7.281   5.646   7.904 -2.1483  1.8186  2.3856
  447GLU     H655547   7.096   5.646   8.070  1.3831  1.6356 -1.5532
  447GLU     H755548   7.031   5.485   8.016  0.8162 -1.0242 -1.7050
  447GLU     H855549   6.895   5.580   7.857  1.6194  0.0282 -3.0000
  447GLU     H955550   7.002   5.713   7.827 -1.4393  1.6031  0.5089
  447GLU    H1055551   6.960   5.865   7.969  2.1636 -0.2855 -0.3085
  447GLU    H1155552   6.876   5.776   8.083  2.2264 -0.9460 -0.2494
  447GLU    H1255553   6.761   5.857   7.805 -2.1852 -2.4737 -0.2677
  447GLU    H1355554   6.516   5.859   7.794 -1.4274 -1.5400  1.5998
  447GLU    H1455555   6.425   6.013   8.024  1.5101  3.8643  1.2242
  447GLU    H1555556   6.427   6.049   7.868 -2.0566  0.0013  1.8755
  447GLU    H1655557   6.643   6.118   7.841 -0.6686  3.3309  1.6577
  448GLU     C155558   3.720   4.085   4.472 -0.3209  1.0169  0.3992
  448GLU     C255559   3.685   4.060   4.318  0.4617 -0.2141  0.7754
  448GLU     C355560   3.558   4.135   4.262 -0.5557  1.6097 -0.1677
  448GLU     O155561   3.450   4.112   4.370 -0.8675  0.5233 -0.1152
  448GLU     C455562   3.480   4.129   4.516  1.0716  0.6657  0.2167
  448GLU     C555563   3.346   4.078   4.595  0.7092  0.6106  0.5977
  448GLU     C655564   3.344   4.034   4.743 -0.4292 -1.0257  0.2271
  448GLU     C755565   3.227   3.936   4.783 -0.1505 -0.3164 -0.5794
  448GLU     C855566   3.142   3.985   4.904 -0.0838  0.2476 -1.9540
  448GLU     O255567   3.067   3.869   4.957 -0.7849  0.5577 -0.0384
  448GLU     C955568   2.991   3.891   5.082 -0.6828  0.1835  0.5023
  448GLU    C1055569   3.083   3.960   5.180 -0.9332  0.1053  0.7114
  448GLU    C1155570   3.235   3.986   5.124 -1.4211  0.8897 -0.5029
  448GLU     O355571   3.234   4.041   4.995 -0.2095  0.0692 -0.2286
  448GLU     O455572   3.599   4.054   4.554 -0.6110  0.2929  1.4007
  448GLU     H155573   3.722   4.192   4.496 -0.7659  0.7424  1.7527
  448GLU     H255574   3.660   3.953   4.308  0.0576 -0.4249  3.3927
  448GLU     H355575   3.775   4.079   4.259  0.4134 -4.6745 -1.1847
  448GLU     H455576   3.600   4.234   4.240 -1.7016  1.6371 -2.6427
  448GLU     H555577   3.504   4.234   4.535  0.6716  1.1497 -1.7499
  448GLU     H655578   3.341   3.980   4.547  1.2698  0.8895 -0.0557
  448GLU     H755579   3.268   4.149   4.564  4.3487  4.9287  0.1817
  448GLU     H855580   3.373   4.113   4.813 -0.1409  2.0829 -3.0649
  448GLU     H955581   3.436   3.977   4.759  0.2865 -0.5498 -1.8295
  448GLU    H1055582   3.270   3.838   4.807 -0.1203  0.0728  1.0069
  448GLU    H1155583   3.155   3.935   4.700 -0.2549 -0.4973 -0.4884
  448GLU    H1255584   3.062   4.058   4.885 -2.6451 -2.6299 -3.2958
  448GLU    H1355585   2.926   3.977   5.060  0.5906  1.0276 -0.1167
  448GLU    H1455586   3.088   3.904   5.275  1.4001 -1.1075 -0.0497
  448GLU    H1555587   3.036   4.050   5.221 -1.1530 -0.6152  2.1084
  448GLU    H1655588   3.292   3.892   5.122 -0.1392  1.5514 -4.3241
  449GLU     C155589   5.335   5.577   1.711 -0.7425 -0.0960  0.4106
  449GLU     C255590   5.333   5.718   1.654  0.5859 -0.1275 -0.5318
  449GLU     C355591   5.470   5.795   1.680 -0.5128  0.7258  0.2312
  449GLU     O155592   5.580   5.718   1.623  0.0301 -0.4655 -0.9969
  449GLU     C455593   5.562   5.585   1.594 -1.0885  0.3224  1.2168
  449GLU     C555594   5.703   5.514   1.593  1.4802  1.4765  1.2282
  449GLU     C655595   5.719   5.360   1.620  0.3890  0.3253  0.2473
  449GLU     C755596   5.850   5.297   1.574 -0.3244 -1.0933  0.6857
  449GLU     C855597   5.881   5.148   1.617 -0.3323 -0.6454  0.1794
  449GLU     O255598   5.969   5.068   1.521 -0.0753  0.4428  0.1616
  449GLU     C955599   6.106   5.030   1.553  0.0960 -0.3141 -0.3028
  449GLU    C1055600   6.116   5.034   1.715 -0.2838 -0.5258  0.6981
  449GLU    C1155601   6.062   5.164   1.775 -0.0798  0.4774 -0.6844
  449GLU     O355602   5.917   5.145   1.756 -0.5452  0.2923  0.0043
  449GLU     O455603   5.472   5.525   1.682 -0.6463  0.4530 -0.8452
  449GLU     H155604   5.338   5.591   1.819  4.2518  0.0115  0.5224
  449GLU     H255605   5.246   5.768   1.699  0.5199  0.7378 -1.5663
  449GLU     H355606   5.315   5.712   1.546  0.5521  0.0658 -0.5375
  449GLU     H455607   5.485   5.795   1.788  2.7539 -2.5894 -0.0273
  449GLU     H555608   5.514   5.572   1.496  3.1771 -4.0383 -0.7633
  449GLU     H655609   5.769   5.572   1.659  4.2360 -1.6106  1.3953
  449GLU     H755610   5.738   5.526   1.490  1.6963 -5.2320  0.1103
  449GLU     H855611   5.635   5.298   1.588  0.7922 -0.1331  0.0655
  449GLU     H955612   5.717   5.350   1.729  2.2482  0.0885  0.2936
  449GLU    H1055613   5.928   5.370   1.599 -0.7502 -0.2723 -0.3077
  449GLU    H1155614   5.846   5.301   1.465  0.2363  0.5909  0.6862
  449GLU    H1255615   5.787   5.093   1.600  0.2920 -0.8906 -3.1253
  449GLU    H1355616   6.176   5.110   1.526  2.9868 -1.0436  4.0016
  449GLU    H1455617   6.214   5.014   1.762  0.7178 -1.1363 -1.5242
  449GLU    H1555618   6.047   4.958   1.752 -1.7405 -2.0983 -4.5044
  449GLU    H1655619   6.084   5.243   1.702  4.0615 -0.0209 -0.2204
  450GLU     C155620   5.400   1.051   7.189 -0.0453  1.4776 -0.4840
  450GLU     C255621   5.523   1.036   7.100 -0.1910 -0.4714  0.4975
  450GLU     C355622   5.617   1.160   7.112 -0.7127 -0.4443 -0.4014
  450GLU     O155623   5.616   1.200   7.256 -0.1283 -0.2311  0.3087
  450GLU     C455624   5.486   1.228   7.328 -0.9795  0.6801 -0.5693
  450GLU     C555625   5.460   1.382   7.377 -0.4018  0.4834 -0.5885
  450GLU     C655626   5.568   1.396   7.484  0.2067 -0.0637  0.0090
  450GLU     C755627   5.577   1.549   7.524  0.1801 -0.0494  0.8666
  450GLU     C855628   5.715   1.607   7.479 -1.9606  0.3234 -0.0184
  450GLU     O255629   5.709   1.752   7.513 -0.3514  0.2627 -0.3733
  450GLU     C955630   5.830   1.819   7.523  0.0495  0.0597  0.0255
  450GLU    C1055631   5.911   1.737   7.622 -0.3369  1.0448 -0.4872
  450GLU    C1155632   5.935   1.591   7.594 -0.8683  0.6555  0.2411
  450GLU     O355633   5.817   1.527   7.545  0.0443 -0.1043 -0.3308
  450GLU     O455634   5.388   1.183   7.227  0.2039  0.1958 -0.4770
  450GLU     H155635   5.409   0.984   7.276 -1.4676  1.0662 -0.6183
  450GLU     H255636   5.504   1.001   6.998  2.8498 -0.9555 -0.0103
  450GLU     H355637   5.593   0.957   7.130  1.0373 -0.3785 -1.9201
  450GLU     H455638   5.722   1.150   7.083  0.6844  0.8365  3.4641
  450GLU     H555639   5.486   1.160   7.414 -0.7195  0.6612 -0.5845
  450GLU     H655640   5.354   1.379   7.405 -0.1642  3.1179  0.9101
  450GLU     H755641   5.469   1.463   7.304 -0.3103  2.5894  1.6023
  450GLU     H855642   5.665   1.352   7.457 -2.3163 -5.7992 -1.1711
  450GLU     H955643   5.542   1.331   7.568 -1.6712 -1.7803 -1.7939
  450GLU    H1055644   5.562   1.553   7.633 -1.4701 -3.0577  0.8550
  450GLU    H1155645   5.496   1.602   7.472 -1.2781 -0.7934  2.2749
  450GLU    H1255646   5.733   1.605   7.371 -4.2018  1.7762 -0.4906
  450GLU    H1355647   5.874   1.826   7.423  1.0962  2.3392  0.5770
  450GLU    H1455648   5.849   1.741   7.712 -3.3542 -0.0155 -2.3680
  450GLU    H1555649   6.013   1.775   7.637  1.3406 -2.9422 -0.4308
  450GLU    H1655650   6.015   1.584   7.519 -1.2361  1.9064 -0.2994
   7.76537   7.68463   8.09713
